{
    "mp_id": "mp-7849",
    "nelements": 3,
    "nsites": 6,
    "elements": [
        "Al",
        "As",
        "O"
    ],
    "structure": {
        "@module": "pymatgen.core.structure",
        "@class": "Structure",
        "charge": null,
        "lattice": {
            "matrix": [
                [
                    -2.56116371,
                    2.56116385,
                    3.78149003
                ],
                [
                    2.56116371,
                    -2.56116385,
                    3.78149003
                ],
                [
                    2.56116385,
                    2.56116371,
                    -3.78149003
                ]
            ],
            "a": 5.23629512756464,
            "b": 5.23629512756464,
            "c": 5.23629512756464,
            "alpha": 121.43480722980696,
            "beta": 121.43480722980696,
            "gamma": 87.53230222600568,
            "volume": 99.21964157291524
        },
        "sites": [
            {
                "species": [
                    {
                        "element": "Al",
                        "occu": 1
                    }
                ],
                "abc": [
                    0.0,
                    0.0,
                    0.0
                ],
                "xyz": [
                    0.0,
                    0.0,
                    0.0
                ],
                "label": "Al",
                "properties": {}
            },
            {
                "species": [
                    {
                        "element": "As",
                        "occu": 1
                    }
                ],
                "abc": [
                    0.75,
                    0.25,
                    0.5
                ],
                "xyz": [
                    7.000000001866624e-08,
                    2.5611637800000002,
                    1.890745015
                ],
                "label": "As",
                "properties": {}
            },
            {
                "species": [
                    {
                        "element": "O",
                        "occu": 1
                    }
                ],
                "abc": [
                    0.00511627,
                    0.61710869,
                    0.87261532
                ],
                "xyz": [
                    3.80232358943926,
                    0.6674978277960204,
                    -0.9468486499481106
                ],
                "label": "O",
                "properties": {}
            },
            {
                "species": [
                    {
                        "element": "O",
                        "occu": 1
                    }
                ],
                "abc": [
                    0.86749906,
                    0.99488373,
                    0.61199242
                ],
                "xyz": [
                    1.8936658565923425,
                    1.241159765050899,
                    4.728338717763012
                ],
                "label": "O",
                "properties": {}
            },
            {
                "species": [
                    {
                        "element": "O",
                        "occu": 1
                    }
                ],
                "abc": [
                    0.74449336,
                    0.13250094,
                    0.12738468
                ],
                "xyz": [
                    -1.2411597394392604,
                    1.8936658822039796,
                    2.834641304422089
                ],
                "label": "O",
                "properties": {}
            },
            {
                "species": [
                    {
                        "element": "O",
                        "occu": 1
                    }
                ],
                "abc": [
                    0.38289131,
                    0.25550664,
                    0.38800758
                ],
                "xyz": [
                    0.6674979934076574,
                    1.3200039449491014,
                    0.9468486877630107
                ],
                "label": "O",
                "properties": {}
            }
        ]
    },
    "spacegroup": {
        "source": "spglib",
        "symbol": "I-4",
        "number": 82,
        "point_group": "-4",
        "crystal_system": "tetragonal",
        "hall": "I -4"
    },
    "dielectric": {
        "epsilon_ionic": [
            [
                1.66179771,
                3.891e-05,
                -1.983e-05
            ],
            [
                3.891e-05,
                1.6619581,
                5.59e-06
            ],
            [
                -1.983e-05,
                5.59e-06,
                2.1778169
            ]
        ],
        "epsilon_ionic_avg": 1.8338575700000002,
        "epsilon_ionic_eig": [
            1.6617887681814618,
            1.6619670409959528,
            2.177816900822586
        ],
        "epsilon_electronic": [
            [
                2.42178106,
                5.99e-06,
                0.0
            ],
            [
                -5.99e-06,
                2.42178106,
                -0.0
            ],
            [
                0.0,
                0.0,
                2.45629344
            ]
        ],
        "epsilon_electronic_avg": 2.4332851866666663,
        "epsilon_electronic_eig": [
            2.42178106,
            2.42178106,
            2.45629344
        ]
    },
    "phonon": {
        "lowest_freq": -0.03977326950169543,
        "frequency": [
            -0.03977326950169543,
            -0.03977326950169543,
            -0.010873300444576529,
            4.020679504610752,
            4.020679504610752,
            8.42991809950398,
            9.449556499943693,
            10.261931035983622,
            10.261931035983622,
            10.519789321848638,
            10.616291689817816,
            17.105011837239765,
            17.99506150207545,
            17.99506150207545,
            26.771478372910366,
            27.277425079873545,
            27.277425079873545,
            28.552514562480972
        ]
    },
    "born_effective_charge": {
        "avg_abs_trace": 2.0698966666666667,
        "tensors": [
            [
                [
                    2.77227,
                    -0.645,
                    -9e-05
                ],
                [
                    0.64501,
                    2.7722,
                    -8e-05
                ],
                [
                    -0.0,
                    0.0,
                    2.88582
                ]
            ],
            [
                [
                    3.36118,
                    0.40647,
                    -0.00012
                ],
                [
                    -0.40657,
                    3.36139,
                    -9e-05
                ],
                [
                    -0.0,
                    0.0,
                    3.47621
                ]
            ],
            [
                [
                    -2.04208,
                    0.02067,
                    -0.81252
                ],
                [
                    -0.09871,
                    -1.02459,
                    -0.0292
                ],
                [
                    -0.81359,
                    0.02694,
                    -1.59053
                ]
            ],
            [
                [
                    -1.02444,
                    0.09861,
                    -0.02929
                ],
                [
                    -0.02007,
                    -2.04235,
                    0.81266
                ],
                [
                    0.02693,
                    0.8136,
                    -1.59049
                ]
            ],
            [
                [
                    -2.0422,
                    0.02041,
                    0.81274
                ],
                [
                    -0.09888,
                    -1.02451,
                    0.02932
                ],
                [
                    0.81359,
                    -0.02694,
                    -1.59053
                ]
            ],
            [
                [
                    -1.02473,
                    0.09884,
                    0.02928
                ],
                [
                    -0.02078,
                    -2.04213,
                    -0.81261
                ],
                [
                    -0.02693,
                    -0.8136,
                    -1.59049
                ]
            ]
        ]
    },
    "band_gap": 4.3865,
    "is_direct": false,
    "formula": "AlAsO4"
}