{
    "mp_id": "mp-755752",
    "nelements": 3,
    "nsites": 28,
    "elements": [
        "Be",
        "O",
        "Rb"
    ],
    "structure": {
        "@module": "pymatgen.core.structure",
        "@class": "Structure",
        "charge": null,
        "lattice": {
            "matrix": [
                [
                    10.61095474,
                    0.0,
                    0.0
                ],
                [
                    0.0,
                    5.3530734,
                    0.0
                ],
                [
                    0.0,
                    0.0,
                    7.6788917
                ]
            ],
            "a": 10.61095474,
            "b": 5.3530734,
            "c": 7.6788917,
            "alpha": 90.0,
            "beta": 90.0,
            "gamma": 90.0,
            "volume": 436.1704134852016
        },
        "sites": [
            {
                "species": [
                    {
                        "element": "Rb",
                        "occu": 1
                    }
                ],
                "abc": [
                    0.08631544,
                    0.25,
                    0.87295806
                ],
                "xyz": [
                    0.9158892272031856,
                    1.33826835,
                    6.703350401382102
                ],
                "label": "Rb",
                "properties": {}
            },
            {
                "species": [
                    {
                        "element": "Rb",
                        "occu": 1
                    }
                ],
                "abc": [
                    0.11242313,
                    0.75,
                    0.51168685
                ],
                "xyz": [
                    1.1929167441591362,
                    4.0148050500000005,
                    3.929187905464145
                ],
                "label": "Rb",
                "properties": {}
            },
            {
                "species": [
                    {
                        "element": "Rb",
                        "occu": 1
                    }
                ],
                "abc": [
                    0.38757687,
                    0.25,
                    0.01168685
                ],
                "xyz": [
                    4.112560625840864,
                    1.33826835,
                    0.089742055464145
                ],
                "label": "Rb",
                "properties": {}
            },
            {
                "species": [
                    {
                        "element": "Rb",
                        "occu": 1
                    }
                ],
                "abc": [
                    0.41368456,
                    0.75,
                    0.37295806
                ],
                "xyz": [
                    4.389588142796814,
                    4.0148050500000005,
                    2.863904551382102
                ],
                "label": "Rb",
                "properties": {}
            },
            {
                "species": [
                    {
                        "element": "Rb",
                        "occu": 1
                    }
                ],
                "abc": [
                    0.58631544,
                    0.25,
                    0.62704194
                ],
                "xyz": [
                    6.221366597203186,
                    1.33826835,
                    4.814987148617899
                ],
                "label": "Rb",
                "properties": {}
            },
            {
                "species": [
                    {
                        "element": "Rb",
                        "occu": 1
                    }
                ],
                "abc": [
                    0.61242313,
                    0.75,
                    0.98831315
                ],
                "xyz": [
                    6.498394114159137,
                    4.0148050500000005,
                    7.589149644535855
                ],
                "label": "Rb",
                "properties": {}
            },
            {
                "species": [
                    {
                        "element": "Rb",
                        "occu": 1
                    }
                ],
                "abc": [
                    0.88757687,
                    0.25,
                    0.48831315
                ],
                "xyz": [
                    9.418037995840864,
                    1.33826835,
                    3.749703794535855
                ],
                "label": "Rb",
                "properties": {}
            },
            {
                "species": [
                    {
                        "element": "Rb",
                        "occu": 1
                    }
                ],
                "abc": [
                    0.91368456,
                    0.75,
                    0.12704194
                ],
                "xyz": [
                    9.695065512796814,
                    4.0148050500000005,
                    0.975541298617898
                ],
                "label": "Rb",
                "properties": {}
            },
            {
                "species": [
                    {
                        "element": "Be",
                        "occu": 1
                    }
                ],
                "abc": [
                    0.16356662,
                    0.25,
                    0.28166147
                ],
                "xyz": [
                    1.7355980017947787,
                    1.33826835,
                    2.1628479241927994
                ],
                "label": "Be",
                "properties": {}
            },
            {
                "species": [
                    {
                        "element": "Be",
                        "occu": 1
                    }
                ],
                "abc": [
                    0.20835076,
                    0.75,
                    0.11111662
                ],
                "xyz": [
                    2.2108004844046025,
                    4.0148050500000005,
                    0.8532524910500541
                ],
                "label": "Be",
                "properties": {}
            },
            {
                "species": [
                    {
                        "element": "Be",
                        "occu": 1
                    }
                ],
                "abc": [
                    0.29164924,
                    0.25,
                    0.61111662
                ],
                "xyz": [
                    3.0946768855953977,
                    1.33826835,
                    4.692698341050054
                ],
                "label": "Be",
                "properties": {}
            },
            {
                "species": [
                    {
                        "element": "Be",
                        "occu": 1
                    }
                ],
                "abc": [
                    0.33643338,
                    0.75,
                    0.78166147
                ],
                "xyz": [
                    3.5698793682052212,
                    4.0148050500000005,
                    6.002293774192799
                ],
                "label": "Be",
                "properties": {}
            },
            {
                "species": [
                    {
                        "element": "Be",
                        "occu": 1
                    }
                ],
                "abc": [
                    0.66356662,
                    0.25,
                    0.21833853
                ],
                "xyz": [
                    7.041075371794779,
                    1.33826835,
                    1.676597925807201
                ],
                "label": "Be",
                "properties": {}
            },
            {
                "species": [
                    {
                        "element": "Be",
                        "occu": 1
                    }
                ],
                "abc": [
                    0.70835076,
                    0.75,
                    0.38888338
                ],
                "xyz": [
                    7.516277854404603,
                    4.0148050500000005,
                    2.9861933589499463
                ],
                "label": "Be",
                "properties": {}
            },
            {
                "species": [
                    {
                        "element": "Be",
                        "occu": 1
                    }
                ],
                "abc": [
                    0.79164924,
                    0.25,
                    0.88888338
                ],
                "xyz": [
                    8.400154255595398,
                    1.33826835,
                    6.825639208949946
                ],
                "label": "Be",
                "properties": {}
            },
            {
                "species": [
                    {
                        "element": "Be",
                        "occu": 1
                    }
                ],
                "abc": [
                    0.83643338,
                    0.75,
                    0.71833853
                ],
                "xyz": [
                    8.875356738205221,
                    4.0148050500000005,
                    5.516043775807201
                ],
                "label": "Be",
                "properties": {}
            },
            {
                "species": [
                    {
                        "element": "O",
                        "occu": 1
                    }
                ],
                "abc": [
                    0.17887163,
                    0.25,
                    0.48310472
                ],
                "xyz": [
                    1.8979987702000263,
                    1.33826835,
                    3.709708824638824
                ],
                "label": "O",
                "properties": {}
            },
            {
                "species": [
                    {
                        "element": "O",
                        "occu": 1
                    }
                ],
                "abc": [
                    0.15348538,
                    0.99900853,
                    0.18145698
                ],
                "xyz": [
                    1.6286264204317014,
                    5.347765988316103,
                    1.393388497629066
                ],
                "label": "O",
                "properties": {}
            },
            {
                "species": [
                    {
                        "element": "O",
                        "occu": 1
                    }
                ],
                "abc": [
                    0.15348538,
                    0.50099147,
                    0.18145698
                ],
                "xyz": [
                    1.6286264204317014,
                    2.681844111683898,
                    1.393388497629066
                ],
                "label": "O",
                "properties": {}
            },
            {
                "species": [
                    {
                        "element": "O",
                        "occu": 1
                    }
                ],
                "abc": [
                    0.34651462,
                    0.00099147,
                    0.68145698
                ],
                "xyz": [
                    3.676850949568299,
                    0.0053074116838980005,
                    5.232834347629066
                ],
                "label": "O",
                "properties": {}
            },
            {
                "species": [
                    {
                        "element": "O",
                        "occu": 1
                    }
                ],
                "abc": [
                    0.34651462,
                    0.49900853,
                    0.68145698
                ],
                "xyz": [
                    3.676850949568299,
                    2.6712292883161024,
                    5.232834347629066
                ],
                "label": "O",
                "properties": {}
            },
            {
                "species": [
                    {
                        "element": "O",
                        "occu": 1
                    }
                ],
                "abc": [
                    0.32112837,
                    0.75,
                    0.98310472
                ],
                "xyz": [
                    3.407478599799974,
                    4.0148050500000005,
                    7.5491546746388245
                ],
                "label": "O",
                "properties": {}
            },
            {
                "species": [
                    {
                        "element": "O",
                        "occu": 1
                    }
                ],
                "abc": [
                    0.67887163,
                    0.25,
                    0.01689528
                ],
                "xyz": [
                    7.203476140200026,
                    1.33826835,
                    0.12973702536117598
                ],
                "label": "O",
                "properties": {}
            },
            {
                "species": [
                    {
                        "element": "O",
                        "occu": 1
                    }
                ],
                "abc": [
                    0.65348538,
                    0.99900853,
                    0.31854302
                ],
                "xyz": [
                    6.934103790431702,
                    5.347765988316103,
                    2.4460573523709344
                ],
                "label": "O",
                "properties": {}
            },
            {
                "species": [
                    {
                        "element": "O",
                        "occu": 1
                    }
                ],
                "abc": [
                    0.65348538,
                    0.50099147,
                    0.31854302
                ],
                "xyz": [
                    6.934103790431702,
                    2.681844111683898,
                    2.4460573523709344
                ],
                "label": "O",
                "properties": {}
            },
            {
                "species": [
                    {
                        "element": "O",
                        "occu": 1
                    }
                ],
                "abc": [
                    0.84651462,
                    0.49900853,
                    0.81854302
                ],
                "xyz": [
                    8.9823283195683,
                    2.6712292883161024,
                    6.2855032023709345
                ],
                "label": "O",
                "properties": {}
            },
            {
                "species": [
                    {
                        "element": "O",
                        "occu": 1
                    }
                ],
                "abc": [
                    0.84651462,
                    0.00099147,
                    0.81854302
                ],
                "xyz": [
                    8.9823283195683,
                    0.0053074116838980005,
                    6.2855032023709345
                ],
                "label": "O",
                "properties": {}
            },
            {
                "species": [
                    {
                        "element": "O",
                        "occu": 1
                    }
                ],
                "abc": [
                    0.82112837,
                    0.75,
                    0.51689528
                ],
                "xyz": [
                    8.712955969799975,
                    4.0148050500000005,
                    3.969182875361176
                ],
                "label": "O",
                "properties": {}
            }
        ]
    },
    "spacegroup": {
        "source": "spglib",
        "symbol": "Pnma",
        "number": 62,
        "point_group": "mmm",
        "crystal_system": "orthorhombic",
        "hall": "-P 2ac 2n"
    },
    "dielectric": {
        "epsilon_ionic": [
            [
                4.85080161,
                6e-08,
                0.0
            ],
            [
                6e-08,
                4.1651682,
                2e-08
            ],
            [
                0.0,
                2e-08,
                3.71818791
            ]
        ],
        "epsilon_ionic_avg": 4.24471924,
        "epsilon_ionic_eig": [
            4.850801610000006,
            4.165168199999995,
            3.7181879099999993
        ],
        "epsilon_electronic": [
            [
                2.79433192,
                0.0,
                0.0
            ],
            [
                0.0,
                2.86973995,
                0.0
            ],
            [
                0.0,
                0.0,
                2.85859807
            ]
        ],
        "epsilon_electronic_avg": 2.84088998,
        "epsilon_electronic_eig": [
            2.79433192,
            2.86973995,
            2.85859807
        ]
    },
    "phonon": {
        "lowest_freq": -0.049923853978365004,
        "frequency": [
            -0.049923853978365004,
            -0.013709570730372406,
            -0.010378895862177148,
            0.9121712655418601,
            1.1738441527163765,
            1.5203255300697163,
            1.5928929596575432,
            1.6925570701882509,
            1.9173132057472344,
            1.957273602220881,
            1.9626870882445453,
            2.125200584481607,
            2.267432564749173,
            2.3021991248273093,
            2.31829413865142,
            2.4980134707968644,
            2.639186540293909,
            2.682804428394992,
            2.773876643747105,
            2.871827305527785,
            3.162729984339014,
            3.1872874499567936,
            3.2244732467091426,
            3.2247888318023947,
            3.888631791278272,
            3.9134098040679377,
            4.044140075331195,
            4.056538095640924,
            4.07839104059688,
            4.334358621422652,
            4.40675798609465,
            4.475559076002418,
            4.500906384498428,
            4.514237644272373,
            4.690816926998611,
            4.728771042457492,
            4.84881383422714,
            4.919492684789106,
            5.227830909745639,
            5.408777825447751,
            6.27007677274788,
            6.306660236287189,
            8.84386084606501,
            9.11252762600819,
            10.476010678908713,
            10.48861287076036,
            10.693787255230712,
            10.70264418263261,
            10.714488107065304,
            11.018254528100888,
            13.120590922588907,
            13.129734381478917,
            13.235972146510866,
            13.353712126756765,
            14.94089388505887,
            14.965730519637537,
            16.875702878695595,
            17.06446611573642,
            17.2836670238645,
            17.504568597146747,
            17.598877734686322,
            17.676691056882778,
            18.04995701832847,
            18.510172665624626,
            20.292328964240443,
            20.518217000756902,
            24.894173910673373,
            24.905222844430252,
            26.090860315058666,
            26.10471059691424,
            26.108016309353346,
            26.136208092404523,
            26.94816645961672,
            27.051749370993203,
            28.195600523224158,
            28.197202631853777,
            28.215011774551176,
            28.21520459135309,
            28.34615583705873,
            28.346499679736493,
            29.821847264466598,
            30.061143732846286,
            30.33304774943106,
            30.983395835974058
        ]
    },
    "born_effective_charge": {
        "avg_abs_trace": 1.5688180952380952,
        "tensors": [
            [
                [
                    1.32209,
                    0.0,
                    0.15248
                ],
                [
                    3e-05,
                    1.04949,
                    -5e-05
                ],
                [
                    0.1661,
                    -0.0,
                    1.26043
                ]
            ],
            [
                [
                    1.13452,
                    0.0,
                    0.0359
                ],
                [
                    0.0002,
                    1.37142,
                    -4e-05
                ],
                [
                    0.01593,
                    -0.0,
                    1.12687
                ]
            ],
            [
                [
                    1.13467,
                    0.0,
                    -0.03601
                ],
                [
                    -0.0002,
                    1.37142,
                    -4e-05
                ],
                [
                    -0.01593,
                    -0.0,
                    1.12687
                ]
            ],
            [
                [
                    1.32216,
                    0.0,
                    -0.15252
                ],
                [
                    -3e-05,
                    1.04949,
                    -5e-05
                ],
                [
                    -0.1661,
                    -0.0,
                    1.26043
                ]
            ],
            [
                [
                    1.32209,
                    0.0,
                    -0.15248
                ],
                [
                    3e-05,
                    1.04949,
                    5e-05
                ],
                [
                    -0.166,
                    -0.0,
                    1.26055
                ]
            ],
            [
                [
                    1.13452,
                    0.0,
                    -0.0359
                ],
                [
                    0.0002,
                    1.37142,
                    4e-05
                ],
                [
                    -0.01592,
                    -0.0,
                    1.12684
                ]
            ],
            [
                [
                    1.13467,
                    0.0,
                    0.03601
                ],
                [
                    -0.0002,
                    1.37142,
                    4e-05
                ],
                [
                    0.01592,
                    -0.0,
                    1.12684
                ]
            ],
            [
                [
                    1.32216,
                    0.0,
                    0.15252
                ],
                [
                    -3e-05,
                    1.04949,
                    5e-05
                ],
                [
                    0.166,
                    -0.0,
                    1.26055
                ]
            ],
            [
                [
                    0.49514,
                    0.0,
                    0.17239
                ],
                [
                    -2e-05,
                    2.12031,
                    2e-05
                ],
                [
                    0.14217,
                    -0.0,
                    2.00735
                ]
            ],
            [
                [
                    1.32196,
                    0.0,
                    -0.66506
                ],
                [
                    0.0,
                    2.03628,
                    0.0
                ],
                [
                    -0.75118,
                    -0.0,
                    1.22652
                ]
            ],
            [
                [
                    1.32193,
                    0.0,
                    0.66505
                ],
                [
                    -0.0,
                    2.03628,
                    0.0
                ],
                [
                    0.75118,
                    -0.0,
                    1.22652
                ]
            ],
            [
                [
                    0.49513,
                    0.0,
                    -0.17235
                ],
                [
                    2e-05,
                    2.12031,
                    2e-05
                ],
                [
                    -0.14217,
                    -0.0,
                    2.00735
                ]
            ],
            [
                [
                    0.49514,
                    0.0,
                    -0.17239
                ],
                [
                    -2e-05,
                    2.12031,
                    -2e-05
                ],
                [
                    -0.14219,
                    -0.0,
                    2.00742
                ]
            ],
            [
                [
                    1.32196,
                    0.0,
                    0.66506
                ],
                [
                    0.0,
                    2.03628,
                    -0.0
                ],
                [
                    0.75122,
                    -0.0,
                    1.22658
                ]
            ],
            [
                [
                    1.32193,
                    0.0,
                    -0.66505
                ],
                [
                    -0.0,
                    2.03628,
                    -0.0
                ],
                [
                    -0.75122,
                    -0.0,
                    1.22658
                ]
            ],
            [
                [
                    0.49513,
                    0.0,
                    0.17235
                ],
                [
                    2e-05,
                    2.12031,
                    -2e-05
                ],
                [
                    0.14219,
                    -0.0,
                    2.00742
                ]
            ],
            [
                [
                    -1.53966,
                    0.0,
                    -0.42989
                ],
                [
                    -0.00031,
                    -1.69225,
                    8e-05
                ],
                [
                    -0.48998,
                    -0.0,
                    -2.24127
                ]
            ],
            [
                [
                    -1.36709,
                    0.09607,
                    0.05388
                ],
                [
                    0.08738,
                    -2.44264,
                    -0.28636
                ],
                [
                    0.07707,
                    -0.324,
                    -1.68996
                ]
            ],
            [
                [
                    -1.36709,
                    -0.09607,
                    0.05388
                ],
                [
                    -0.08718,
                    -2.44261,
                    0.28644
                ],
                [
                    0.07707,
                    0.324,
                    -1.68996
                ]
            ],
            [
                [
                    -1.36711,
                    0.09608,
                    -0.05388
                ],
                [
                    0.08718,
                    -2.44261,
                    0.28644
                ],
                [
                    -0.07707,
                    0.324,
                    -1.68996
                ]
            ],
            [
                [
                    -1.36711,
                    -0.09608,
                    -0.05388
                ],
                [
                    -0.08738,
                    -2.44264,
                    -0.28636
                ],
                [
                    -0.07707,
                    -0.324,
                    -1.68996
                ]
            ],
            [
                [
                    -1.53956,
                    0.0,
                    0.42992
                ],
                [
                    0.00031,
                    -1.69225,
                    8e-05
                ],
                [
                    0.48998,
                    -0.0,
                    -2.24127
                ]
            ],
            [
                [
                    -1.53966,
                    0.0,
                    0.42989
                ],
                [
                    -0.00031,
                    -1.69225,
                    -8e-05
                ],
                [
                    0.48983,
                    -0.0,
                    -2.24143
                ]
            ],
            [
                [
                    -1.36709,
                    0.09607,
                    -0.05388
                ],
                [
                    0.08738,
                    -2.44264,
                    0.28636
                ],
                [
                    -0.07713,
                    0.3241,
                    -1.68998
                ]
            ],
            [
                [
                    -1.36709,
                    -0.09607,
                    -0.05388
                ],
                [
                    -0.08718,
                    -2.44261,
                    -0.28644
                ],
                [
                    -0.07713,
                    -0.3241,
                    -1.68998
                ]
            ],
            [
                [
                    -1.36711,
                    -0.09608,
                    0.05388
                ],
                [
                    -0.08738,
                    -2.44264,
                    0.28636
                ],
                [
                    0.07713,
                    0.3241,
                    -1.68998
                ]
            ],
            [
                [
                    -1.36711,
                    0.09608,
                    0.05388
                ],
                [
                    0.08718,
                    -2.44261,
                    -0.28644
                ],
                [
                    0.07713,
                    -0.3241,
                    -1.68998
                ]
            ],
            [
                [
                    -1.53956,
                    0.0,
                    -0.42992
                ],
                [
                    0.00031,
                    -1.69225,
                    -8e-05
                ],
                [
                    -0.48983,
                    -0.0,
                    -2.24143
                ]
            ]
        ]
    },
    "band_gap": 2.424,
    "is_direct": true,
    "formula": "Rb2Be2O3"
}