{
    "mp_id": "mp-761686",
    "nelements": 3,
    "nsites": 24,
    "elements": [
        "Bi",
        "Na",
        "O"
    ],
    "structure": {
        "@module": "pymatgen.core.structure",
        "@class": "Structure",
        "charge": null,
        "lattice": {
            "matrix": [
                [
                    2.93928243,
                    -5.08206215,
                    0.00041749
                ],
                [
                    2.93928243,
                    5.08206215,
                    0.00041749
                ],
                [
                    -1.85875171,
                    0.0,
                    10.94323149
                ]
            ],
            "a": 5.870837851113521,
            "b": 5.870837851113521,
            "c": 11.099967268562352,
            "alpha": 94.80517763732362,
            "beta": 94.80517763732362,
            "gamma": 119.91290323969774,
            "volume": 326.9394667443234
        },
        "sites": [
            {
                "species": [
                    {
                        "element": "Na",
                        "occu": 1
                    }
                ],
                "abc": [
                    0.32239915,
                    0.15103682,
                    0.00211244
                ],
                "xyz": [
                    1.3876355268887346,
                    -0.8708740112288096,
                    0.023314574711850902
                ],
                "label": "Na",
                "properties": {}
            },
            {
                "species": [
                    {
                        "element": "Na",
                        "occu": 1
                    }
                ],
                "abc": [
                    0.15103682,
                    0.32239915,
                    0.50211244
                ],
                "xyz": [
                    0.45825967188873473,
                    0.8708740112288096,
                    5.494930319711852
                ],
                "label": "Na",
                "properties": {}
            },
            {
                "species": [
                    {
                        "element": "Na",
                        "occu": 1
                    }
                ],
                "abc": [
                    0.5,
                    0.0,
                    0.5
                ],
                "xyz": [
                    0.54026536,
                    -2.541031075,
                    5.47182449
                ],
                "label": "Na",
                "properties": {}
            },
            {
                "species": [
                    {
                        "element": "Na",
                        "occu": 1
                    }
                ],
                "abc": [
                    0.91479982,
                    0.08520018,
                    0.75
                ],
                "xyz": [
                    1.5452186475,
                    -4.216076930097626,
                    8.2078411075
                ],
                "label": "Na",
                "properties": {}
            },
            {
                "species": [
                    {
                        "element": "Na",
                        "occu": 1
                    }
                ],
                "abc": [
                    0.08520018,
                    0.91479982,
                    0.25
                ],
                "xyz": [
                    2.4745945025,
                    4.216076930097626,
                    2.7362253625
                ],
                "label": "Na",
                "properties": {}
            },
            {
                "species": [
                    {
                        "element": "Na",
                        "occu": 1
                    }
                ],
                "abc": [
                    0.84896318,
                    0.67760085,
                    0.49788756
                ],
                "xyz": [
                    3.561553478111266,
                    -0.8708740112288096,
                    5.449136150288149
                ],
                "label": "Na",
                "properties": {}
            },
            {
                "species": [
                    {
                        "element": "Na",
                        "occu": 1
                    }
                ],
                "abc": [
                    0.0,
                    0.5,
                    0.0
                ],
                "xyz": [
                    1.469641215,
                    2.541031075,
                    0.000208745
                ],
                "label": "Na",
                "properties": {}
            },
            {
                "species": [
                    {
                        "element": "Na",
                        "occu": 1
                    }
                ],
                "abc": [
                    0.67760085,
                    0.84896318,
                    0.99788756
                ],
                "xyz": [
                    2.632177623111266,
                    0.8708740112288096,
                    10.920751895288149
                ],
                "label": "Na",
                "properties": {}
            },
            {
                "species": [
                    {
                        "element": "Bi",
                        "occu": 1
                    }
                ],
                "abc": [
                    0.58098644,
                    0.41901356,
                    0.75
                ],
                "xyz": [
                    1.5452186475,
                    -0.8231562427744921,
                    8.2078411075
                ],
                "label": "Bi",
                "properties": {}
            },
            {
                "species": [
                    {
                        "element": "Bi",
                        "occu": 1
                    }
                ],
                "abc": [
                    0.24820285,
                    0.75179715,
                    0.75
                ],
                "xyz": [
                    1.5452186475,
                    2.559297530985745,
                    8.2078411075
                ],
                "label": "Bi",
                "properties": {}
            },
            {
                "species": [
                    {
                        "element": "Bi",
                        "occu": 1
                    }
                ],
                "abc": [
                    0.41901356,
                    0.58098644,
                    0.25
                ],
                "xyz": [
                    2.4745945025,
                    0.8231562427744921,
                    2.7362253625
                ],
                "label": "Bi",
                "properties": {}
            },
            {
                "species": [
                    {
                        "element": "Bi",
                        "occu": 1
                    }
                ],
                "abc": [
                    0.75179715,
                    0.24820285,
                    0.25
                ],
                "xyz": [
                    2.4745945025,
                    -2.559297530985745,
                    2.7362253625
                ],
                "label": "Bi",
                "properties": {}
            },
            {
                "species": [
                    {
                        "element": "O",
                        "occu": 1
                    }
                ],
                "abc": [
                    0.21937926,
                    0.02110153,
                    0.6361732
                ],
                "xyz": [
                    -0.47564706255665223,
                    -1.0076597468209194,
                    6.961890993659085
                ],
                "label": "O",
                "properties": {}
            },
            {
                "species": [
                    {
                        "element": "O",
                        "occu": 1
                    }
                ],
                "abc": [
                    0.58039834,
                    0.0926707,
                    0.86009343
                ],
                "xyz": [
                    0.3796398696767018,
                    -2.478662178752826,
                    9.412482507111623
                ],
                "label": "O",
                "properties": {}
            },
            {
                "species": [
                    {
                        "element": "O",
                        "occu": 1
                    }
                ],
                "abc": [
                    0.02110153,
                    0.21937926,
                    0.1361732
                ],
                "xyz": [
                    0.45372879244334763,
                    1.0076597468209194,
                    1.4902752486590851
                ],
                "label": "O",
                "properties": {}
            },
            {
                "species": [
                    {
                        "element": "O",
                        "occu": 1
                    }
                ],
                "abc": [
                    0.2959793,
                    0.49554573,
                    0.86504271
                ],
                "xyz": [
                    0.718615997148689,
                    1.0142090003136246,
                    9.466693078051714
                ],
                "label": "O",
                "properties": {}
            },
            {
                "species": [
                    {
                        "element": "O",
                        "occu": 1
                    }
                ],
                "abc": [
                    0.0926707,
                    0.58039834,
                    0.36009343
                ],
                "xyz": [
                    1.3090157246767018,
                    2.478662178752826,
                    3.9408667621116207
                ],
                "label": "O",
                "properties": {}
            },
            {
                "species": [
                    {
                        "element": "O",
                        "occu": 1
                    }
                ],
                "abc": [
                    0.49554573,
                    0.2959793,
                    0.36504271
                ],
                "xyz": [
                    1.6479918521486892,
                    -1.0142090003136246,
                    3.9950773330517126
                ],
                "label": "O",
                "properties": {}
            },
            {
                "species": [
                    {
                        "element": "O",
                        "occu": 1
                    }
                ],
                "abc": [
                    0.50445427,
                    0.7040207,
                    0.63495729
                ],
                "xyz": [
                    2.3718212978513113,
                    1.0142090003136248,
                    6.948989136948288
                ],
                "label": "O",
                "properties": {}
            },
            {
                "species": [
                    {
                        "element": "O",
                        "occu": 1
                    }
                ],
                "abc": [
                    0.9073293,
                    0.41960166,
                    0.63990657
                ],
                "xyz": [
                    2.710797425323298,
                    -2.478662178752826,
                    7.003199707888379
                ],
                "label": "O",
                "properties": {}
            },
            {
                "species": [
                    {
                        "element": "O",
                        "occu": 1
                    }
                ],
                "abc": [
                    0.7040207,
                    0.50445427,
                    0.13495729
                ],
                "xyz": [
                    3.301197152851311,
                    -1.0142090003136248,
                    1.4773733919482874
                ],
                "label": "O",
                "properties": {}
            },
            {
                "species": [
                    {
                        "element": "O",
                        "occu": 1
                    }
                ],
                "abc": [
                    0.97889847,
                    0.78062074,
                    0.8638268
                ],
                "xyz": [
                    3.5660843575566523,
                    -1.0076597468209192,
                    9.453791221340916
                ],
                "label": "O",
                "properties": {}
            },
            {
                "species": [
                    {
                        "element": "O",
                        "occu": 1
                    }
                ],
                "abc": [
                    0.41960166,
                    0.9073293,
                    0.13990657
                ],
                "xyz": [
                    3.640173280323298,
                    2.478662178752826,
                    1.5315839628883798
                ],
                "label": "O",
                "properties": {}
            },
            {
                "species": [
                    {
                        "element": "O",
                        "occu": 1
                    }
                ],
                "abc": [
                    0.78062074,
                    0.97889847,
                    0.3638268
                ],
                "xyz": [
                    4.495460212556653,
                    1.0076597468209192,
                    3.982175476340915
                ],
                "label": "O",
                "properties": {}
            }
        ]
    },
    "spacegroup": {
        "source": "spglib",
        "symbol": "C2/c",
        "number": 15,
        "point_group": "2/m",
        "crystal_system": "monoclinic",
        "hall": "-C 2yc"
    },
    "dielectric": {
        "epsilon_ionic": [
            [
                16.9312313,
                2e-08,
                1.40680364
            ],
            [
                2e-08,
                15.7822876,
                1e-07
            ],
            [
                1.40680364,
                1e-07,
                5.77432024
            ]
        ],
        "epsilon_ionic_avg": 12.829279713333337,
        "epsilon_ionic_eig": [
            5.599666820770478,
            17.10588471922953,
            15.782287600000005
        ],
        "epsilon_electronic": [
            [
                5.14214239,
                0.0,
                0.03426852
            ],
            [
                0.0,
                5.1677682,
                0.0
            ],
            [
                0.03426531,
                0.0,
                3.56142531
            ]
        ],
        "epsilon_electronic_avg": 4.623778633333334,
        "epsilon_electronic_eig": [
            5.142884882240493,
            3.5606828177595076,
            5.1677682
        ]
    },
    "phonon": {
        "lowest_freq": -0.06633531705424991,
        "frequency": [
            -0.06633531705424991,
            -0.02511959121031412,
            -0.012639658443657406,
            1.2952492661132966,
            1.41802655726856,
            2.2912901117164,
            2.3690919035920937,
            2.614328361044923,
            2.7383437262844725,
            2.957384262743137,
            3.490192445963872,
            3.659259932796317,
            3.960664705846885,
            4.149486973058321,
            4.158484691074155,
            4.205786257770406,
            4.4734223633439,
            4.652213577499378,
            4.873843689833992,
            4.877476072000924,
            4.911993143521807,
            4.996290641736858,
            5.342995410771504,
            5.477539992842409,
            5.607481350637476,
            5.642262215614489,
            5.868087509291938,
            6.042706452205193,
            6.132711145847282,
            6.194090430342252,
            6.2130665691800235,
            6.44221474653454,
            6.6119120135472675,
            6.630031715483384,
            6.696775319048874,
            6.71493390266662,
            6.9945091161163155,
            7.001454002684198,
            7.005505016072366,
            7.045508535717785,
            7.2710585919302595,
            7.629962313846777,
            7.654398743491521,
            7.673741175892954,
            7.744592063757859,
            8.07598506925865,
            8.822480217844,
            9.0540480904336,
            9.070816074252207,
            9.083445982919056,
            9.466501880884747,
            9.625272506105603,
            10.591246111448482,
            10.8672870935173,
            10.93918843425118,
            10.989802786660993,
            11.02846756044986,
            11.482031936716483,
            12.300905313135992,
            12.337404374272232,
            12.40693013563867,
            12.448962508611782,
            12.563333469311315,
            12.753342221011977,
            12.900750009815832,
            13.11978916392368,
            13.231218248640298,
            13.351869158339762,
            13.473060227475385,
            14.961737575407192,
            14.989098454957773,
            15.082699166329967
        ]
    },
    "born_effective_charge": {
        "avg_abs_trace": 2.098010277777778,
        "tensors": [
            [
                [
                    0.90162,
                    0.05509,
                    -0.01519
                ],
                [
                    0.06095,
                    1.09967,
                    -0.02112
                ],
                [
                    -0.00926,
                    0.01926,
                    1.45597
                ]
            ],
            [
                [
                    0.90162,
                    -0.05509,
                    -0.01519
                ],
                [
                    -0.06086,
                    1.09985,
                    0.02112
                ],
                [
                    -0.00926,
                    -0.01926,
                    1.45597
                ]
            ],
            [
                [
                    1.18414,
                    0.11937,
                    0.05272
                ],
                [
                    0.11115,
                    0.8053,
                    0.03977
                ],
                [
                    0.02681,
                    0.04291,
                    1.45373
                ]
            ],
            [
                [
                    1.18116,
                    -1e-05,
                    0.00898
                ],
                [
                    0.0,
                    1.16845,
                    0.0
                ],
                [
                    0.01384,
                    0.0,
                    0.53134
                ]
            ],
            [
                [
                    1.18116,
                    1e-05,
                    0.00898
                ],
                [
                    0.0,
                    1.16842,
                    0.0
                ],
                [
                    0.01384,
                    -0.0,
                    0.53134
                ]
            ],
            [
                [
                    0.90163,
                    -0.05507,
                    -0.01518
                ],
                [
                    -0.06095,
                    1.09967,
                    0.02112
                ],
                [
                    -0.00928,
                    -0.01928,
                    1.45598
                ]
            ],
            [
                [
                    1.18414,
                    -0.11937,
                    0.05272
                ],
                [
                    -0.11115,
                    0.8053,
                    -0.03977
                ],
                [
                    0.02681,
                    -0.04291,
                    1.45373
                ]
            ],
            [
                [
                    0.90163,
                    0.05507,
                    -0.01518
                ],
                [
                    0.06086,
                    1.09985,
                    -0.02112
                ],
                [
                    -0.00928,
                    0.01928,
                    1.45598
                ]
            ],
            [
                [
                    5.22609,
                    3e-05,
                    -0.05068
                ],
                [
                    0.0,
                    5.32876,
                    0.0
                ],
                [
                    0.00873,
                    -2e-05,
                    1.99985
                ]
            ],
            [
                [
                    4.73728,
                    -2e-05,
                    0.01079
                ],
                [
                    0.0,
                    4.78696,
                    0.0
                ],
                [
                    -0.09755,
                    -7e-05,
                    2.44635
                ]
            ],
            [
                [
                    5.22609,
                    -3e-05,
                    -0.05068
                ],
                [
                    0.0,
                    5.32886,
                    0.0
                ],
                [
                    0.00873,
                    2e-05,
                    1.99985
                ]
            ],
            [
                [
                    4.73728,
                    2e-05,
                    0.01079
                ],
                [
                    0.0,
                    4.78699,
                    0.0
                ],
                [
                    -0.09755,
                    7e-05,
                    2.44635
                ]
            ],
            [
                [
                    -2.90269,
                    -0.81425,
                    -0.18719
                ],
                [
                    -0.47078,
                    -1.82908,
                    0.2701
                ],
                [
                    -0.23053,
                    0.27943,
                    -1.56973
                ]
            ],
            [
                [
                    -2.63024,
                    -0.6287,
                    -0.13912
                ],
                [
                    -1.04923,
                    -2.10392,
                    0.31308
                ],
                [
                    -0.0931,
                    0.34684,
                    -1.47712
                ]
            ],
            [
                [
                    -2.90269,
                    0.81425,
                    -0.18719
                ],
                [
                    0.46842,
                    -1.82865,
                    -0.27137
                ],
                [
                    -0.23053,
                    -0.27943,
                    -1.56973
                ]
            ],
            [
                [
                    -1.53308,
                    0.30684,
                    0.33057
                ],
                [
                    -0.01552,
                    -3.2115,
                    0.01518
                ],
                [
                    0.35669,
                    -0.0483,
                    -1.62471
                ]
            ],
            [
                [
                    -2.63024,
                    0.6287,
                    -0.13912
                ],
                [
                    1.04725,
                    -2.1018,
                    -0.31179
                ],
                [
                    -0.0931,
                    -0.34684,
                    -1.47712
                ]
            ],
            [
                [
                    -1.53308,
                    -0.30684,
                    0.33057
                ],
                [
                    0.01554,
                    -3.21409,
                    -0.01465
                ],
                [
                    0.35669,
                    0.0483,
                    -1.62471
                ]
            ],
            [
                [
                    -1.53308,
                    -0.30681,
                    0.33058
                ],
                [
                    0.01552,
                    -3.2115,
                    -0.01518
                ],
                [
                    0.3567,
                    0.04863,
                    -1.62471
                ]
            ],
            [
                [
                    -2.6302,
                    0.62871,
                    -0.13917
                ],
                [
                    1.04923,
                    -2.10392,
                    -0.31308
                ],
                [
                    -0.09279,
                    -0.34696,
                    -1.47708
                ]
            ],
            [
                [
                    -1.53308,
                    0.30681,
                    0.33058
                ],
                [
                    -0.01554,
                    -3.21409,
                    0.01465
                ],
                [
                    0.3567,
                    -0.04863,
                    -1.62471
                ]
            ],
            [
                [
                    -2.90264,
                    0.81435,
                    -0.18711
                ],
                [
                    0.47078,
                    -1.82908,
                    -0.2701
                ],
                [
                    -0.23025,
                    -0.27964,
                    -1.56987
                ]
            ],
            [
                [
                    -2.6302,
                    -0.62871,
                    -0.13917
                ],
                [
                    -1.04725,
                    -2.1018,
                    0.31179
                ],
                [
                    -0.09279,
                    0.34696,
                    -1.47708
                ]
            ],
            [
                [
                    -2.90264,
                    -0.81435,
                    -0.18711
                ],
                [
                    -0.46842,
                    -1.82865,
                    0.27137
                ],
                [
                    -0.23025,
                    0.27964,
                    -1.56987
                ]
            ]
        ]
    },
    "band_gap": 1.2378,
    "is_direct": false,
    "formula": "Na2BiO3"
}