{
    "mp_id": "mp-7206",
    "nelements": 3,
    "nsites": 12,
    "elements": [
        "Ag",
        "O",
        "Tc"
    ],
    "structure": {
        "@module": "pymatgen.core.structure",
        "@class": "Structure",
        "charge": null,
        "lattice": {
            "matrix": [
                [
                    -2.62601917,
                    2.62601905,
                    5.7402411
                ],
                [
                    2.62601917,
                    -2.62601905,
                    5.7402411
                ],
                [
                    2.62601905,
                    2.62601917,
                    -5.7402411
                ]
            ],
            "a": 6.836835570517958,
            "b": 6.836835570517958,
            "c": 6.836835570517958,
            "alpha": 134.82441418857195,
            "beta": 134.82441418857195,
            "gamma": 65.80314292273592,
            "volume": 158.33826784492356
        },
        "sites": [
            {
                "species": [
                    {
                        "element": "Tc",
                        "occu": 1
                    }
                ],
                "abc": [
                    0.5,
                    0.5,
                    0.0
                ],
                "xyz": [
                    0.0,
                    0.0,
                    5.7402411
                ],
                "label": "Tc",
                "properties": {}
            },
            {
                "species": [
                    {
                        "element": "Tc",
                        "occu": 1
                    }
                ],
                "abc": [
                    0.25,
                    0.75,
                    0.5
                ],
                "xyz": [
                    2.62601911,
                    6.000000007944095e-08,
                    2.87012055
                ],
                "label": "Tc",
                "properties": {}
            },
            {
                "species": [
                    {
                        "element": "Ag",
                        "occu": 1
                    }
                ],
                "abc": [
                    0.0,
                    0.0,
                    0.0
                ],
                "xyz": [
                    0.0,
                    0.0,
                    0.0
                ],
                "label": "Ag",
                "properties": {}
            },
            {
                "species": [
                    {
                        "element": "Ag",
                        "occu": 1
                    }
                ],
                "abc": [
                    0.75,
                    0.25,
                    0.5
                ],
                "xyz": [
                    -6.000000007944095e-08,
                    2.62601911,
                    2.87012055
                ],
                "label": "Ag",
                "properties": {}
            },
            {
                "species": [
                    {
                        "element": "O",
                        "occu": 1
                    }
                ],
                "abc": [
                    0.18304012,
                    0.28312772,
                    0.6337066
                ],
                "xyz": [
                    1.9269575599900222,
                    1.401293735486742,
                    -0.961712875995036
                ],
                "label": "O",
                "properties": {}
            },
            {
                "species": [
                    {
                        "element": "O",
                        "occu": 1
                    }
                ],
                "abc": [
                    0.29933352,
                    0.43304012,
                    0.39991241
                ],
                "xyz": [
                    1.4012937017469325,
                    0.6990615762701698,
                    1.908407616602553
                ],
                "label": "O",
                "properties": {}
            },
            {
                "species": [
                    {
                        "element": "O",
                        "occu": 1
                    }
                ],
                "abc": [
                    0.03312772,
                    0.89942112,
                    0.60008759
                ],
                "xyz": [
                    3.8507445182530677,
                    -0.6990614562701694,
                    1.9084077314073746
                ],
                "label": "O",
                "properties": {}
            },
            {
                "species": [
                    {
                        "element": "O",
                        "occu": 1
                    }
                ],
                "abc": [
                    0.64942112,
                    0.54933352,
                    0.3662934
                ],
                "xyz": [
                    0.6990614900099782,
                    1.2247254345132579,
                    4.7785282240049645
                ],
                "label": "O",
                "properties": {}
            },
            {
                "species": [
                    {
                        "element": "O",
                        "occu": 1
                    }
                ],
                "abc": [
                    0.10057888,
                    0.70066648,
                    0.1337066
                ],
                "xyz": [
                    1.9269576199900222,
                    -1.224725374513258,
                    3.831833425995036
                ],
                "label": "O",
                "properties": {}
            },
            {
                "species": [
                    {
                        "element": "O",
                        "occu": 1
                    }
                ],
                "abc": [
                    0.71687228,
                    0.35057888,
                    0.89991241
                ],
                "xyz": [
                    1.4012936417469324,
                    3.3250806862701703,
                    0.9617128185926251
                ],
                "label": "O",
                "properties": {}
            },
            {
                "species": [
                    {
                        "element": "O",
                        "occu": 1
                    }
                ],
                "abc": [
                    0.45066648,
                    0.81695988,
                    0.10008759
                ],
                "xyz": [
                    1.2247254082530676,
                    -0.6990615162701695,
                    6.701954033397447
                ],
                "label": "O",
                "properties": {}
            },
            {
                "species": [
                    {
                        "element": "O",
                        "occu": 1
                    }
                ],
                "abc": [
                    0.56695988,
                    0.96687228,
                    0.8662934
                ],
                "xyz": [
                    3.3250806000099784,
                    1.2247254945132582,
                    3.831833425995036
                ],
                "label": "O",
                "properties": {}
            }
        ]
    },
    "spacegroup": {
        "source": "spglib",
        "symbol": "I4_1/a",
        "number": 88,
        "point_group": "4/m",
        "crystal_system": "tetragonal",
        "hall": "I 4bw -1bw"
    },
    "dielectric": {
        "epsilon_ionic": [
            [
                5.63673245,
                -0.00029962,
                -1e-08
            ],
            [
                -0.00029962,
                5.63658026,
                0.0
            ],
            [
                -1e-08,
                0.0,
                3.70329026
            ]
        ],
        "epsilon_ionic_avg": 4.99220099,
        "epsilon_ionic_eig": [
            5.636965487000001,
            5.636347222999999,
            3.70329026
        ],
        "epsilon_electronic": [
            [
                4.57386736,
                -3.3e-07,
                0.0
            ],
            [
                3.3e-07,
                4.57386736,
                -0.0
            ],
            [
                0.0,
                -0.0,
                4.62384719
            ]
        ],
        "epsilon_electronic_avg": 4.590527303333334,
        "epsilon_electronic_eig": [
            4.57386736,
            4.57386736,
            4.62384719
        ]
    },
    "phonon": {
        "lowest_freq": -0.02867187070418464,
        "frequency": [
            -0.02867187070418464,
            -0.02867187070418464,
            -0.012475355356404021,
            1.9497443173944735,
            1.9497443173944735,
            2.0847913311023687,
            2.3775307528032643,
            2.3775307528032643,
            2.785908220056179,
            3.0795097676891205,
            3.0795097676891205,
            3.301701926081021,
            3.301701926081021,
            3.4062892488319787,
            4.637360389923627,
            5.650266875534161,
            5.650266875534161,
            6.597218787619823,
            8.1051340826491,
            8.946190733283565,
            8.946190733283565,
            8.951819170428951,
            9.427154788515702,
            10.700262301505802,
            10.878104860949968,
            11.217173118858947,
            11.217173118858947,
            11.407785274534922,
            23.50138321445557,
            23.802916732848026,
            23.802916732848026,
            24.088689848608386,
            24.088689848608386,
            25.13819415749756,
            25.248761607410902,
            25.284895387281335
        ]
    },
    "born_effective_charge": {
        "avg_abs_trace": 1.8284727777777778,
        "tensors": [
            [
                [
                    3.81794,
                    -0.21469,
                    0.00035
                ],
                [
                    0.21442,
                    3.81801,
                    0.00027
                ],
                [
                    -0.0,
                    0.0,
                    4.34209
                ]
            ],
            [
                [
                    3.81794,
                    -0.21469,
                    -0.00035
                ],
                [
                    0.21442,
                    3.81801,
                    -0.00027
                ],
                [
                    -0.0,
                    0.0,
                    4.34209
                ]
            ],
            [
                [
                    1.53414,
                    0.07912,
                    3e-05
                ],
                [
                    -0.07915,
                    1.53412,
                    0.0
                ],
                [
                    -0.0,
                    0.0,
                    1.40995
                ]
            ],
            [
                [
                    1.53414,
                    0.07912,
                    -3e-05
                ],
                [
                    -0.07915,
                    1.53412,
                    -0.0
                ],
                [
                    0.0,
                    0.0,
                    1.40995
                ]
            ],
            [
                [
                    -1.02651,
                    -0.64776,
                    -0.66279
                ],
                [
                    -0.71506,
                    -1.64995,
                    -0.80423
                ],
                [
                    -0.59388,
                    -0.84506,
                    -1.43805
                ]
            ],
            [
                [
                    -1.64963,
                    0.71504,
                    -0.8041
                ],
                [
                    0.64797,
                    -1.02646,
                    0.6629
                ],
                [
                    -0.84506,
                    0.59388,
                    -1.43805
                ]
            ],
            [
                [
                    -1.64993,
                    0.71526,
                    0.80454
                ],
                [
                    0.64698,
                    -1.02621,
                    -0.66248
                ],
                [
                    0.84506,
                    -0.59388,
                    -1.43805
                ]
            ],
            [
                [
                    -1.02601,
                    -0.64697,
                    0.66258
                ],
                [
                    -0.71516,
                    -1.64952,
                    0.80416
                ],
                [
                    0.59388,
                    0.84506,
                    -1.43805
                ]
            ],
            [
                [
                    -1.02651,
                    -0.64776,
                    0.66279
                ],
                [
                    -0.71506,
                    -1.64995,
                    0.80423
                ],
                [
                    0.59389,
                    0.8452,
                    -1.43797
                ]
            ],
            [
                [
                    -1.64963,
                    0.71504,
                    0.8041
                ],
                [
                    0.64797,
                    -1.02646,
                    -0.6629
                ],
                [
                    0.8452,
                    -0.59389,
                    -1.43797
                ]
            ],
            [
                [
                    -1.64993,
                    0.71526,
                    -0.80454
                ],
                [
                    0.64698,
                    -1.02621,
                    0.66248
                ],
                [
                    -0.8452,
                    0.59389,
                    -1.43797
                ]
            ],
            [
                [
                    -1.02601,
                    -0.64697,
                    -0.66258
                ],
                [
                    -0.71516,
                    -1.64952,
                    -0.80416
                ],
                [
                    -0.59389,
                    -0.8452,
                    -1.43797
                ]
            ]
        ]
    },
    "band_gap": 2.3162,
    "is_direct": false,
    "formula": "TcAgO4"
}