{
    "mp_id": "mp-755558",
    "nelements": 3,
    "nsites": 14,
    "elements": [
        "Ba",
        "La",
        "O"
    ],
    "structure": {
        "@module": "pymatgen.core.structure",
        "@class": "Structure",
        "charge": null,
        "lattice": {
            "matrix": [
                [
                    0.0,
                    5.2096783,
                    5.2096783
                ],
                [
                    5.2096783,
                    0.0,
                    5.2096783
                ],
                [
                    5.2096783,
                    5.2096783,
                    0.0
                ]
            ],
            "a": 7.36759770746081,
            "b": 7.36759770746081,
            "c": 7.36759770746081,
            "alpha": 59.99999999999999,
            "beta": 59.99999999999999,
            "gamma": 59.99999999999999,
            "volume": 282.7891316932387
        },
        "sites": [
            {
                "species": [
                    {
                        "element": "Ba",
                        "occu": 1
                    }
                ],
                "abc": [
                    0.25,
                    0.25,
                    0.25
                ],
                "xyz": [
                    2.60483915,
                    2.60483915,
                    2.60483915
                ],
                "label": "Ba",
                "properties": {}
            },
            {
                "species": [
                    {
                        "element": "Ba",
                        "occu": 1
                    }
                ],
                "abc": [
                    0.0,
                    0.0,
                    0.0
                ],
                "xyz": [
                    0.0,
                    0.0,
                    0.0
                ],
                "label": "Ba",
                "properties": {}
            },
            {
                "species": [
                    {
                        "element": "La",
                        "occu": 1
                    }
                ],
                "abc": [
                    0.625,
                    0.125,
                    0.625
                ],
                "xyz": [
                    3.907258725,
                    6.512097875,
                    3.907258725
                ],
                "label": "La",
                "properties": {}
            },
            {
                "species": [
                    {
                        "element": "La",
                        "occu": 1
                    }
                ],
                "abc": [
                    0.625,
                    0.625,
                    0.125
                ],
                "xyz": [
                    3.907258725,
                    3.907258725,
                    6.512097875
                ],
                "label": "La",
                "properties": {}
            },
            {
                "species": [
                    {
                        "element": "La",
                        "occu": 1
                    }
                ],
                "abc": [
                    0.625,
                    0.625,
                    0.625
                ],
                "xyz": [
                    6.512097875,
                    6.512097875,
                    6.512097875
                ],
                "label": "La",
                "properties": {}
            },
            {
                "species": [
                    {
                        "element": "La",
                        "occu": 1
                    }
                ],
                "abc": [
                    0.125,
                    0.625,
                    0.625
                ],
                "xyz": [
                    6.512097875,
                    3.907258725,
                    3.907258725
                ],
                "label": "La",
                "properties": {}
            },
            {
                "species": [
                    {
                        "element": "O",
                        "occu": 1
                    }
                ],
                "abc": [
                    0.81964087,
                    0.39345271,
                    0.39345271
                ],
                "xyz": [
                    4.099524090726386,
                    6.319827299595314,
                    6.319827299595314
                ],
                "label": "O",
                "properties": {}
            },
            {
                "species": [
                    {
                        "element": "O",
                        "occu": 1
                    }
                ],
                "abc": [
                    0.39345271,
                    0.39345271,
                    0.39345271
                ],
                "xyz": [
                    4.099524090726386,
                    4.099524090726386,
                    4.099524090726386
                ],
                "label": "O",
                "properties": {}
            },
            {
                "species": [
                    {
                        "element": "O",
                        "occu": 1
                    }
                ],
                "abc": [
                    0.39345271,
                    0.39345271,
                    0.81964087
                ],
                "xyz": [
                    6.319827299595314,
                    6.319827299595314,
                    4.099524090726386
                ],
                "label": "O",
                "properties": {}
            },
            {
                "species": [
                    {
                        "element": "O",
                        "occu": 1
                    }
                ],
                "abc": [
                    0.85654729,
                    0.43035913,
                    0.85654729
                ],
                "xyz": [
                    6.704368450404686,
                    8.924671659273613,
                    6.704368450404686
                ],
                "label": "O",
                "properties": {}
            },
            {
                "species": [
                    {
                        "element": "O",
                        "occu": 1
                    }
                ],
                "abc": [
                    0.39345271,
                    0.81964087,
                    0.39345271
                ],
                "xyz": [
                    6.319827299595314,
                    4.099524090726386,
                    6.319827299595314
                ],
                "label": "O",
                "properties": {}
            },
            {
                "species": [
                    {
                        "element": "O",
                        "occu": 1
                    }
                ],
                "abc": [
                    0.85654729,
                    0.85654729,
                    0.43035913
                ],
                "xyz": [
                    6.704368450404686,
                    6.704368450404686,
                    8.924671659273613
                ],
                "label": "O",
                "properties": {}
            },
            {
                "species": [
                    {
                        "element": "O",
                        "occu": 1
                    }
                ],
                "abc": [
                    0.85654729,
                    0.85654729,
                    0.85654729
                ],
                "xyz": [
                    8.924671659273613,
                    8.924671659273613,
                    8.924671659273613
                ],
                "label": "O",
                "properties": {}
            },
            {
                "species": [
                    {
                        "element": "O",
                        "occu": 1
                    }
                ],
                "abc": [
                    0.43035913,
                    0.85654729,
                    0.85654729
                ],
                "xyz": [
                    8.924671659273613,
                    6.704368450404686,
                    6.704368450404686
                ],
                "label": "O",
                "properties": {}
            }
        ]
    },
    "spacegroup": {
        "source": "spglib",
        "symbol": "Fd-3m",
        "number": 227,
        "point_group": "m-3m",
        "crystal_system": "cubic",
        "hall": "F 4d 2 3 -1d"
    },
    "dielectric": {
        "epsilon_ionic": [
            [
                14.14082471,
                0.0,
                0.0
            ],
            [
                0.0,
                14.14164736,
                -0.0
            ],
            [
                0.0,
                -0.0,
                14.14409588
            ]
        ],
        "epsilon_ionic_avg": 14.142189316666666,
        "epsilon_ionic_eig": [
            14.14082471,
            14.14164736,
            14.14409588
        ],
        "epsilon_electronic": [
            [
                4.04008066,
                0.0,
                -0.0
            ],
            [
                0.0,
                4.04008066,
                -0.0
            ],
            [
                -0.0,
                0.0,
                4.04008066
            ]
        ],
        "epsilon_electronic_avg": 4.04008066,
        "epsilon_electronic_eig": [
            4.04008066,
            4.04008066,
            4.04008066
        ]
    },
    "phonon": {
        "lowest_freq": -0.06574418588972923,
        "frequency": [
            -0.06574418588972923,
            -0.06574418588972923,
            -0.06574418588972923,
            2.115081905782553,
            2.115081905782553,
            2.115081905782553,
            2.9731139801971396,
            2.9731139801971396,
            2.9731139801971396,
            3.1173718142596205,
            3.1173718142596205,
            3.1173718142596205,
            4.065224484296389,
            4.065224484296389,
            5.5778550022343865,
            5.5778550022343865,
            5.5778550022343865,
            6.122989582151102,
            6.122989582151102,
            6.122989582151102,
            6.641035705975683,
            6.641035705975683,
            6.641035705975683,
            7.657827062384815,
            7.821694770816345,
            7.821694770816345,
            7.821694770816345,
            8.038473735345512,
            8.038473735345512,
            8.649234060618664,
            8.649234060618664,
            9.722852367800034,
            9.722852367800034,
            9.722852367800034,
            9.724942923282244,
            9.724942923282244,
            9.724942923282244,
            12.403217098087174,
            13.547617177145753,
            13.547617177145753,
            13.547617177145753,
            14.528233212627542
        ]
    },
    "born_effective_charge": {
        "avg_abs_trace": 2.961883809523809,
        "tensors": [
            [
                [
                    2.66274,
                    0.0,
                    0.0
                ],
                [
                    0.0,
                    2.66301,
                    0.0
                ],
                [
                    0.0,
                    -0.0,
                    2.66251
                ]
            ],
            [
                [
                    2.66274,
                    0.0,
                    0.0
                ],
                [
                    0.0,
                    2.66301,
                    0.0
                ],
                [
                    0.0,
                    -0.0,
                    2.66251
                ]
            ],
            [
                [
                    3.85162,
                    -0.69943,
                    0.69943
                ],
                [
                    -0.69933,
                    3.85159,
                    -0.69933
                ],
                [
                    0.69957,
                    -0.69957,
                    3.85255
                ]
            ],
            [
                [
                    3.85162,
                    0.69943,
                    -0.69943
                ],
                [
                    0.69933,
                    3.85159,
                    -0.69933
                ],
                [
                    -0.69957,
                    -0.69957,
                    3.85255
                ]
            ],
            [
                [
                    3.85162,
                    0.69943,
                    0.69943
                ],
                [
                    0.69933,
                    3.85159,
                    0.69933
                ],
                [
                    0.69957,
                    0.69957,
                    3.85255
                ]
            ],
            [
                [
                    3.85162,
                    -0.69943,
                    -0.69943
                ],
                [
                    -0.69933,
                    3.85159,
                    0.69933
                ],
                [
                    -0.69957,
                    0.69957,
                    3.85255
                ]
            ],
            [
                [
                    -2.59146,
                    0.00033,
                    0.00033
                ],
                [
                    0.00037,
                    -2.59154,
                    -0.00037
                ],
                [
                    0.00055,
                    -0.00055,
                    -2.5919
                ]
            ],
            [
                [
                    -2.59146,
                    -0.00033,
                    -0.00033
                ],
                [
                    -0.00031,
                    -2.59155,
                    -0.00031
                ],
                [
                    -0.00049,
                    -0.00049,
                    -2.59191
                ]
            ],
            [
                [
                    -2.59153,
                    -0.00041,
                    0.00041
                ],
                [
                    -0.00037,
                    -2.59154,
                    0.00037
                ],
                [
                    0.00049,
                    0.00049,
                    -2.59191
                ]
            ],
            [
                [
                    -2.59146,
                    0.00033,
                    -0.00033
                ],
                [
                    0.00037,
                    -2.59154,
                    0.00037
                ],
                [
                    -0.00049,
                    0.00049,
                    -2.59191
                ]
            ],
            [
                [
                    -2.59153,
                    0.00041,
                    -0.00041
                ],
                [
                    0.00031,
                    -2.59155,
                    0.00031
                ],
                [
                    -0.00055,
                    0.00055,
                    -2.5919
                ]
            ],
            [
                [
                    -2.59146,
                    -0.00033,
                    0.00033
                ],
                [
                    -0.00031,
                    -2.59155,
                    0.00031
                ],
                [
                    0.00055,
                    0.00055,
                    -2.5919
                ]
            ],
            [
                [
                    -2.59153,
                    -0.00041,
                    -0.00041
                ],
                [
                    -0.00037,
                    -2.59154,
                    -0.00037
                ],
                [
                    -0.00055,
                    -0.00055,
                    -2.5919
                ]
            ],
            [
                [
                    -2.59153,
                    0.00041,
                    0.00041
                ],
                [
                    0.00031,
                    -2.59155,
                    -0.00031
                ],
                [
                    0.00049,
                    -0.00049,
                    -2.59191
                ]
            ]
        ]
    },
    "band_gap": 3.4885999999999995,
    "is_direct": true,
    "formula": "BaLa2O4"
}