{
    "mp_id": "mp-7074",
    "nelements": 4,
    "nsites": 20,
    "elements": [
        "Na",
        "O",
        "Sc",
        "Si"
    ],
    "structure": {
        "@module": "pymatgen.core.structure",
        "@class": "Structure",
        "charge": null,
        "lattice": {
            "matrix": [
                [
                    4.93184398,
                    -4.50201617,
                    -0.00014434
                ],
                [
                    4.93184398,
                    4.50201617,
                    -0.00014434
                ],
                [
                    -1.63368884,
                    0.0,
                    5.110729
                ]
            ],
            "a": 6.6776668574314,
            "b": 6.6776668574314,
            "c": 5.365490670701194,
            "alpha": 102.99683904633171,
            "beta": 102.99683904633171,
            "gamma": 84.78256007222252,
            "volume": 226.94737567006976
        },
        "sites": [
            {
                "species": [
                    {
                        "element": "Na",
                        "occu": 1
                    }
                ],
                "abc": [
                    0.29865709,
                    0.70134291,
                    0.25
                ],
                "xyz": [
                    4.52342177,
                    1.8128980730697097,
                    1.27753791
                ],
                "label": "Na",
                "properties": {}
            },
            {
                "species": [
                    {
                        "element": "Na",
                        "occu": 1
                    }
                ],
                "abc": [
                    0.70134291,
                    0.29865709,
                    0.75
                ],
                "xyz": [
                    3.70657735,
                    -1.8128980730697097,
                    3.8329024100000004
                ],
                "label": "Na",
                "properties": {}
            },
            {
                "species": [
                    {
                        "element": "Sc",
                        "occu": 1
                    }
                ],
                "abc": [
                    0.89769217,
                    0.10230783,
                    0.25
                ],
                "xyz": [
                    4.52342177,
                    -3.580833160044778,
                    1.27753791
                ],
                "label": "Sc",
                "properties": {}
            },
            {
                "species": [
                    {
                        "element": "Sc",
                        "occu": 1
                    }
                ],
                "abc": [
                    0.10230783,
                    0.89769217,
                    0.75
                ],
                "xyz": [
                    3.70657735,
                    3.580833160044778,
                    3.8329024100000004
                ],
                "label": "Sc",
                "properties": {}
            },
            {
                "species": [
                    {
                        "element": "Si",
                        "occu": 1
                    }
                ],
                "abc": [
                    0.79679253,
                    0.62106814,
                    0.25335502
                ],
                "xyz": [
                    6.5787643410862895,
                    -0.7911140452433867,
                    1.2946241940004721
                ],
                "label": "Si",
                "properties": {}
            },
            {
                "species": [
                    {
                        "element": "Si",
                        "occu": 1
                    }
                ],
                "abc": [
                    0.62106814,
                    0.79679253,
                    0.75335502
                ],
                "xyz": [
                    5.761919921086289,
                    0.7911140452433867,
                    3.849988694000472
                ],
                "label": "Si",
                "properties": {}
            },
            {
                "species": [
                    {
                        "element": "Si",
                        "occu": 1
                    }
                ],
                "abc": [
                    0.37893186,
                    0.20320747,
                    0.24664498
                ],
                "xyz": [
                    2.4680791989137103,
                    -0.7911140452433862,
                    1.2604516259995278
                ],
                "label": "Si",
                "properties": {}
            },
            {
                "species": [
                    {
                        "element": "Si",
                        "occu": 1
                    }
                ],
                "abc": [
                    0.20320747,
                    0.37893186,
                    0.74664498
                ],
                "xyz": [
                    1.6512347789137103,
                    0.7911140452433862,
                    3.815816125999528
                ],
                "label": "Si",
                "properties": {}
            },
            {
                "species": [
                    {
                        "element": "O",
                        "occu": 1
                    }
                ],
                "abc": [
                    0.6528693,
                    0.64376995,
                    0.4732134
                ],
                "xyz": [
                    5.621739028825759,
                    -0.04096542083648913,
                    2.418278289659255
                ],
                "label": "O",
                "properties": {}
            },
            {
                "species": [
                    {
                        "element": "O",
                        "occu": 1
                    }
                ],
                "abc": [
                    0.35623005,
                    0.3471307,
                    0.0267866
                ],
                "xyz": [
                    3.4251045111742413,
                    -0.040965420836489574,
                    0.136797530340745
                ],
                "label": "O",
                "properties": {}
            },
            {
                "species": [
                    {
                        "element": "O",
                        "occu": 1
                    }
                ],
                "abc": [
                    0.3471307,
                    0.35623005,
                    0.5267866
                ],
                "xyz": [
                    2.6082600911742415,
                    0.040965420836489574,
                    2.6921620303407447
                ],
                "label": "O",
                "properties": {}
            },
            {
                "species": [
                    {
                        "element": "O",
                        "occu": 1
                    }
                ],
                "abc": [
                    0.64376995,
                    0.6528693,
                    0.9732134
                ],
                "xyz": [
                    4.80489460882576,
                    0.04096542083648913,
                    4.973642789659255
                ],
                "label": "O",
                "properties": {}
            },
            {
                "species": [
                    {
                        "element": "O",
                        "occu": 1
                    }
                ],
                "abc": [
                    0.89121733,
                    0.38919315,
                    0.19235774
                ],
                "xyz": [
                    6.00053202459129,
                    -2.2601209760909904,
                    0.9829034657437767
                ],
                "label": "O",
                "properties": {}
            },
            {
                "species": [
                    {
                        "element": "O",
                        "occu": 1
                    }
                ],
                "abc": [
                    0.61080685,
                    0.10878267,
                    0.30764226
                ],
                "xyz": [
                    3.0463115154087115,
                    -2.260120976090991,
                    1.5721723542562231
                ],
                "label": "O",
                "properties": {}
            },
            {
                "species": [
                    {
                        "element": "O",
                        "occu": 1
                    }
                ],
                "abc": [
                    0.10878267,
                    0.61080685,
                    0.80764226
                ],
                "xyz": [
                    2.2294670954087117,
                    2.260120976090991,
                    4.127536854256223
                ],
                "label": "O",
                "properties": {}
            },
            {
                "species": [
                    {
                        "element": "O",
                        "occu": 1
                    }
                ],
                "abc": [
                    0.38919315,
                    0.89121733,
                    0.69235774
                ],
                "xyz": [
                    5.18368760459129,
                    2.2601209760909904,
                    3.538267965743777
                ],
                "label": "O",
                "properties": {}
            },
            {
                "species": [
                    {
                        "element": "O",
                        "occu": 1
                    }
                ],
                "abc": [
                    0.80305539,
                    0.96296681,
                    0.85371289
                ],
                "xyz": [
                    7.3150447346592085,
                    0.7199237986076605,
                    4.362840316952462
                ],
                "label": "O",
                "properties": {}
            },
            {
                "species": [
                    {
                        "element": "O",
                        "occu": 1
                    }
                ],
                "abc": [
                    0.03703319,
                    0.19694461,
                    0.64628711
                ],
                "xyz": [
                    0.0981099653407913,
                    0.7199237986076614,
                    3.302964503047538
                ],
                "label": "O",
                "properties": {}
            },
            {
                "species": [
                    {
                        "element": "O",
                        "occu": 1
                    }
                ],
                "abc": [
                    0.19694461,
                    0.03703319,
                    0.14628711
                ],
                "xyz": [
                    0.9149543853407915,
                    -0.7199237986076614,
                    0.7476000030475379
                ],
                "label": "O",
                "properties": {}
            },
            {
                "species": [
                    {
                        "element": "O",
                        "occu": 1
                    }
                ],
                "abc": [
                    0.96296681,
                    0.80305539,
                    0.35371289
                ],
                "xyz": [
                    8.131889154659207,
                    -0.7199237986076605,
                    1.8074758169524618
                ],
                "label": "O",
                "properties": {}
            }
        ]
    },
    "spacegroup": {
        "source": "spglib",
        "symbol": "C2/c",
        "number": 15,
        "point_group": "2/m",
        "crystal_system": "monoclinic",
        "hall": "-C 2yc"
    },
    "dielectric": {
        "epsilon_ionic": [
            [
                5.92657824,
                1e-08,
                -0.64544724
            ],
            [
                1e-08,
                5.01734464,
                0.0
            ],
            [
                -0.64544724,
                0.0,
                4.85914843
            ]
        ],
        "epsilon_ionic_avg": 5.26769043666667,
        "epsilon_ionic_eig": [
            6.230391686426257,
            4.555334983573751,
            5.017344640000002
        ],
        "epsilon_electronic": [
            [
                3.18477082,
                0.0,
                0.03045479
            ],
            [
                0.0,
                3.17235321,
                0.0
            ],
            [
                0.03045452,
                0.0,
                3.07831934
            ]
        ],
        "epsilon_electronic_avg": 3.1451477899999998,
        "epsilon_electronic_eig": [
            3.192867713747242,
            3.070222446252758,
            3.17235321
        ]
    },
    "phonon": {
        "lowest_freq": -0.06012343648187178,
        "frequency": [
            -0.06012343648187178,
            -0.05800272376707901,
            -0.03730994562864349,
            3.1043961068664787,
            3.2799805759623775,
            3.5271173212750244,
            3.802731615854887,
            4.2572403346971415,
            4.926217393803983,
            4.9774448187430815,
            5.407099250179575,
            5.53180382971392,
            5.878912227911359,
            6.236651852697765,
            6.309836692967278,
            6.452605204513512,
            7.083198070788359,
            7.2400025753136426,
            7.894306454747214,
            7.947126158443075,
            7.969429686238824,
            8.444761037059125,
            8.535196250794394,
            9.074705433305413,
            9.311406936264193,
            9.34249593732638,
            10.111121041205367,
            10.371139639990071,
            10.774097628258495,
            11.095967805259495,
            11.12069415498666,
            11.275243045575955,
            11.281045350799154,
            11.433878128211349,
            13.103277821025566,
            13.688859790484594,
            13.918156035852096,
            14.24642254340278,
            14.407964286251502,
            15.13439059094016,
            16.024939987980755,
            16.265009188034078,
            16.523011350470046,
            16.57406897416753,
            18.49683940023009,
            19.44132891677511,
            21.47636269266907,
            21.8776222531989,
            25.679234502624087,
            25.718380946294154,
            26.418052494279582,
            28.017650300304627,
            28.021172413949706,
            28.294176799611247,
            28.83213858057182,
            29.64392401602262,
            29.819774673305343,
            30.19133379758183,
            30.22520287437876,
            30.458002244303277
        ]
    },
    "born_effective_charge": {
        "avg_abs_trace": 2.3521908333333337,
        "tensors": [
            [
                [
                    1.08075,
                    -1e-05,
                    -0.02341
                ],
                [
                    -0.0,
                    1.09056,
                    0.0
                ],
                [
                    0.00454,
                    2e-05,
                    1.09526
                ]
            ],
            [
                [
                    1.08075,
                    1e-05,
                    -0.02341
                ],
                [
                    -0.0,
                    1.09056,
                    0.0
                ],
                [
                    0.00454,
                    -2e-05,
                    1.09526
                ]
            ],
            [
                [
                    4.05544,
                    -6e-05,
                    0.01029
                ],
                [
                    -0.0,
                    3.87794,
                    0.0
                ],
                [
                    -0.04982,
                    -4e-05,
                    3.56654
                ]
            ],
            [
                [
                    4.05544,
                    6e-05,
                    0.01029
                ],
                [
                    -0.0,
                    3.87787,
                    0.0
                ],
                [
                    -0.04982,
                    4e-05,
                    3.56654
                ]
            ],
            [
                [
                    3.33462,
                    0.67311,
                    0.05222
                ],
                [
                    0.33884,
                    3.43348,
                    0.14551
                ],
                [
                    0.11459,
                    0.05696,
                    3.49009
                ]
            ],
            [
                [
                    3.33462,
                    -0.67311,
                    0.05222
                ],
                [
                    -0.33882,
                    3.43346,
                    -0.14549
                ],
                [
                    0.11459,
                    -0.05696,
                    3.49009
                ]
            ],
            [
                [
                    3.33459,
                    -0.67308,
                    0.05235
                ],
                [
                    -0.33884,
                    3.43348,
                    -0.14551
                ],
                [
                    0.11437,
                    -0.057,
                    3.49016
                ]
            ],
            [
                [
                    3.33459,
                    0.67308,
                    0.05235
                ],
                [
                    0.33882,
                    3.43346,
                    0.14549
                ],
                [
                    0.11437,
                    0.057,
                    3.49016
                ]
            ],
            [
                [
                    -1.50409,
                    0.27777,
                    0.29921
                ],
                [
                    0.23309,
                    -1.67803,
                    -0.74089
                ],
                [
                    0.23068,
                    -0.73743,
                    -2.32773
                ]
            ],
            [
                [
                    -1.50412,
                    -0.27784,
                    0.29951
                ],
                [
                    -0.23309,
                    -1.67803,
                    0.74089
                ],
                [
                    0.23066,
                    0.73718,
                    -2.32759
                ]
            ],
            [
                [
                    -1.50412,
                    0.27784,
                    0.29951
                ],
                [
                    0.23302,
                    -1.67807,
                    -0.74092
                ],
                [
                    0.23066,
                    -0.73718,
                    -2.32759
                ]
            ],
            [
                [
                    -1.50409,
                    -0.27777,
                    0.29921
                ],
                [
                    -0.23302,
                    -1.67807,
                    0.74092
                ],
                [
                    0.23068,
                    0.73743,
                    -2.32773
                ]
            ],
            [
                [
                    -2.09241,
                    -1.10601,
                    0.03788
                ],
                [
                    -1.03448,
                    -2.59443,
                    -0.02607
                ],
                [
                    -0.00852,
                    -0.07579,
                    -1.3114
                ]
            ],
            [
                [
                    -2.0924,
                    1.10605,
                    0.03787
                ],
                [
                    1.03448,
                    -2.59443,
                    0.02607
                ],
                [
                    -0.0086,
                    0.07585,
                    -1.31141
                ]
            ],
            [
                [
                    -2.0924,
                    -1.10605,
                    0.03787
                ],
                [
                    -1.0345,
                    -2.59435,
                    -0.02608
                ],
                [
                    -0.0086,
                    -0.07585,
                    -1.31141
                ]
            ],
            [
                [
                    -2.09241,
                    1.10601,
                    0.03788
                ],
                [
                    1.0345,
                    -2.59435,
                    0.02608
                ],
                [
                    -0.00852,
                    0.07579,
                    -1.3114
                ]
            ],
            [
                [
                    -2.30617,
                    0.47749,
                    -0.38295
                ],
                [
                    0.41271,
                    -1.64527,
                    -0.31541
                ],
                [
                    -0.31383,
                    -0.24282,
                    -2.18194
                ]
            ],
            [
                [
                    -2.30622,
                    -0.47746,
                    -0.38296
                ],
                [
                    -0.41271,
                    -1.64527,
                    0.31541
                ],
                [
                    -0.31407,
                    0.24282,
                    -2.18198
                ]
            ],
            [
                [
                    -2.30622,
                    0.47746,
                    -0.38296
                ],
                [
                    0.41271,
                    -1.64526,
                    -0.3153
                ],
                [
                    -0.31407,
                    -0.24282,
                    -2.18198
                ]
            ],
            [
                [
                    -2.30617,
                    -0.47749,
                    -0.38295
                ],
                [
                    -0.41271,
                    -1.64526,
                    0.3153
                ],
                [
                    -0.31383,
                    0.24282,
                    -2.18194
                ]
            ]
        ]
    },
    "band_gap": 4.943,
    "is_direct": false,
    "formula": "NaSc(SiO3)2"
}