{
    "mp_id": "mp-759900",
    "nelements": 4,
    "nsites": 32,
    "elements": [
        "K",
        "Li",
        "Nb",
        "O"
    ],
    "structure": {
        "@module": "pymatgen.core.structure",
        "@class": "Structure",
        "charge": null,
        "lattice": {
            "matrix": [
                [
                    5.7603213,
                    0.0,
                    0.01272637
                ],
                [
                    0.0,
                    8.48347662,
                    0.0
                ],
                [
                    -0.31530224,
                    0.0,
                    10.94697843
                ]
            ],
            "a": 5.760335358269263,
            "b": 8.48347662,
            "c": 10.951518262297437,
            "alpha": 90.0,
            "beta": 91.5232312001986,
            "gamma": 90.0,
            "volume": 534.9860687623516
        },
        "sites": [
            {
                "species": [
                    {
                        "element": "K",
                        "occu": 1
                    }
                ],
                "abc": [
                    0.75003268,
                    0.51168692,
                    0.6199857
                ],
                "xyz": [
                    4.124946342322116,
                    4.340884022579811,
                    6.796515278206222
                ],
                "label": "K",
                "properties": {}
            },
            {
                "species": [
                    {
                        "element": "K",
                        "occu": 1
                    }
                ],
                "abc": [
                    0.27886421,
                    0.2621661,
                    0.13257775
                ],
                "xyz": [
                    1.564545387121513,
                    2.224079979906582,
                    1.45487469866415
                ],
                "label": "K",
                "properties": {}
            },
            {
                "species": [
                    {
                        "element": "K",
                        "occu": 1
                    }
                ],
                "abc": [
                    0.24996732,
                    0.01168692,
                    0.8800143
                ],
                "xyz": [
                    1.162421597677884,
                    0.09914571257981039,
                    9.636678736793776
                ],
                "label": "K",
                "properties": {}
            },
            {
                "species": [
                    {
                        "element": "K",
                        "occu": 1
                    }
                ],
                "abc": [
                    0.27886421,
                    0.2378339,
                    0.63257775
                ],
                "xyz": [
                    1.406894267121513,
                    2.017658330093418,
                    6.928363913664151
                ],
                "label": "K",
                "properties": {}
            },
            {
                "species": [
                    {
                        "element": "K",
                        "occu": 1
                    }
                ],
                "abc": [
                    0.72113579,
                    0.7621661,
                    0.36742225
                ],
                "xyz": [
                    4.038124792878488,
                    6.465818289906581,
                    4.031340886335849
                ],
                "label": "K",
                "properties": {}
            },
            {
                "species": [
                    {
                        "element": "K",
                        "occu": 1
                    }
                ],
                "abc": [
                    0.75003268,
                    0.98831308,
                    0.1199857
                ],
                "xyz": [
                    4.282597462322116,
                    8.384330907420189,
                    1.3230260632062225
                ],
                "label": "K",
                "properties": {}
            },
            {
                "species": [
                    {
                        "element": "K",
                        "occu": 1
                    }
                ],
                "abc": [
                    0.72113579,
                    0.7378339,
                    0.86742225
                ],
                "xyz": [
                    3.8804736728784874,
                    6.259396640093418,
                    9.504830101335848
                ],
                "label": "K",
                "properties": {}
            },
            {
                "species": [
                    {
                        "element": "K",
                        "occu": 1
                    }
                ],
                "abc": [
                    0.24996732,
                    0.48831308,
                    0.3800143
                ],
                "xyz": [
                    1.320072717677884,
                    4.142592597420189,
                    4.163189521793778
                ],
                "label": "K",
                "properties": {}
            },
            {
                "species": [
                    {
                        "element": "Li",
                        "occu": 1
                    }
                ],
                "abc": [
                    0.28615726,
                    0.50851456,
                    0.8250478
                ],
                "xyz": [
                    1.3882183404805661,
                    4.313971380689586,
                    9.0354222134879
                ],
                "label": "Li",
                "properties": {}
            },
            {
                "species": [
                    {
                        "element": "Li",
                        "occu": 1
                    }
                ],
                "abc": [
                    0.71384274,
                    0.00851456,
                    0.6749522
                ],
                "xyz": [
                    3.899149599519434,
                    0.07223307068958719,
                    7.397771801512099
                ],
                "label": "Li",
                "properties": {}
            },
            {
                "species": [
                    {
                        "element": "Li",
                        "occu": 1
                    }
                ],
                "abc": [
                    0.28615726,
                    0.99148544,
                    0.3250478
                ],
                "xyz": [
                    1.5458694604805663,
                    8.411243549310413,
                    3.5619329984879005
                ],
                "label": "Li",
                "properties": {}
            },
            {
                "species": [
                    {
                        "element": "Li",
                        "occu": 1
                    }
                ],
                "abc": [
                    0.71384274,
                    0.49148544,
                    0.1749522
                ],
                "xyz": [
                    4.056800719519434,
                    4.169505239310412,
                    1.9242825865120998
                ],
                "label": "Li",
                "properties": {}
            },
            {
                "species": [
                    {
                        "element": "Nb",
                        "occu": 1
                    }
                ],
                "abc": [
                    0.79940772,
                    0.21447976,
                    0.40716397
                ],
                "xyz": [
                    4.476465605112144,
                    1.819534029423211,
                    4.467388755488743
                ],
                "label": "Nb",
                "properties": {}
            },
            {
                "species": [
                    {
                        "element": "Nb",
                        "occu": 1
                    }
                ],
                "abc": [
                    0.20059228,
                    0.71447976,
                    0.09283603
                ],
                "xyz": [
                    1.1262045748878569,
                    6.061272339423211,
                    1.0188268295112564
                ],
                "label": "Nb",
                "properties": {}
            },
            {
                "species": [
                    {
                        "element": "Nb",
                        "occu": 1
                    }
                ],
                "abc": [
                    0.79940772,
                    0.28552024,
                    0.90716397
                ],
                "xyz": [
                    4.318814485112144,
                    2.4222042805767883,
                    9.940877970488744
                ],
                "label": "Nb",
                "properties": {}
            },
            {
                "species": [
                    {
                        "element": "Nb",
                        "occu": 1
                    }
                ],
                "abc": [
                    0.20059228,
                    0.78552024,
                    0.59283603
                ],
                "xyz": [
                    0.9685534548878568,
                    6.663942590576788,
                    6.492316044511256
                ],
                "label": "Nb",
                "properties": {}
            },
            {
                "species": [
                    {
                        "element": "O",
                        "occu": 1
                    }
                ],
                "abc": [
                    0.89002518,
                    0.81893542,
                    0.63567113
                ],
                "xyz": [
                    4.926402470698003,
                    6.94741948885988,
                    6.970004938433722
                ],
                "label": "O",
                "properties": {}
            },
            {
                "species": [
                    {
                        "element": "O",
                        "occu": 1
                    }
                ],
                "abc": [
                    0.78146871,
                    0.19925127,
                    0.57884735
                ],
                "xyz": [
                    4.318998989423459,
                    1.6903434905503074,
                    6.346574714659543
                ],
                "label": "O",
                "properties": {}
            },
            {
                "species": [
                    {
                        "element": "O",
                        "occu": 1
                    }
                ],
                "abc": [
                    0.39765382,
                    0.56614296,
                    0.16931892
                ],
                "xyz": [
                    2.237227134621985,
                    4.802860564737594,
                    1.8585912546761292
                ],
                "label": "O",
                "properties": {}
            },
            {
                "species": [
                    {
                        "element": "O",
                        "occu": 1
                    }
                ],
                "abc": [
                    0.26977287,
                    0.92886023,
                    0.13081032
                ],
                "xyz": [
                    1.5127336223120142,
                    7.879964044452821,
                    1.4354109808209794
                ],
                "label": "O",
                "properties": {}
            },
            {
                "species": [
                    {
                        "element": "O",
                        "occu": 1
                    }
                ],
                "abc": [
                    0.21853129,
                    0.69925127,
                    0.92115265
                ],
                "xyz": [
                    0.9683689505765409,
                    5.932081800550307,
                    10.086619300340457
                ],
                "label": "O",
                "properties": {}
            },
            {
                "species": [
                    {
                        "element": "O",
                        "occu": 1
                    }
                ],
                "abc": [
                    0.10997482,
                    0.31893542,
                    0.86432887
                ],
                "xyz": [
                    0.36096546930199724,
                    2.7056811788598805,
                    9.463189076566279
                ],
                "label": "O",
                "properties": {}
            },
            {
                "species": [
                    {
                        "element": "O",
                        "occu": 1
                    }
                ],
                "abc": [
                    0.73022713,
                    0.42886023,
                    0.36918968
                ],
                "xyz": [
                    4.089936557687985,
                    3.6382257344528224,
                    4.050804604179021
                ],
                "label": "O",
                "properties": {}
            },
            {
                "species": [
                    {
                        "element": "O",
                        "occu": 1
                    }
                ],
                "abc": [
                    0.60234618,
                    0.06614296,
                    0.33068108
                ],
                "xyz": [
                    3.3654430453780146,
                    0.5611222547375951,
                    3.627624330323871
                ],
                "label": "O",
                "properties": {}
            },
            {
                "species": [
                    {
                        "element": "O",
                        "occu": 1
                    }
                ],
                "abc": [
                    0.39765382,
                    0.93385704,
                    0.66931892
                ],
                "xyz": [
                    2.079576014621985,
                    7.922354365262405,
                    7.3320804696761295
                ],
                "label": "O",
                "properties": {}
            },
            {
                "species": [
                    {
                        "element": "O",
                        "occu": 1
                    }
                ],
                "abc": [
                    0.26977287,
                    0.57113977,
                    0.63081032
                ],
                "xyz": [
                    1.355082502312014,
                    4.845250885547178,
                    6.90890019582098
                ],
                "label": "O",
                "properties": {}
            },
            {
                "species": [
                    {
                        "element": "O",
                        "occu": 1
                    }
                ],
                "abc": [
                    0.89002518,
                    0.68106458,
                    0.13567113
                ],
                "xyz": [
                    5.084053590698003,
                    5.777795441140119,
                    1.4965157234337225
                ],
                "label": "O",
                "properties": {}
            },
            {
                "species": [
                    {
                        "element": "O",
                        "occu": 1
                    }
                ],
                "abc": [
                    0.78146871,
                    0.30074873,
                    0.07884735
                ],
                "xyz": [
                    4.476650109423459,
                    2.5513948194496927,
                    0.8730854996595431
                ],
                "label": "O",
                "properties": {}
            },
            {
                "species": [
                    {
                        "element": "O",
                        "occu": 1
                    }
                ],
                "abc": [
                    0.73022713,
                    0.07113977,
                    0.86918968
                ],
                "xyz": [
                    3.932285437687985,
                    0.6035125755471774,
                    9.52429381917902
                ],
                "label": "O",
                "properties": {}
            },
            {
                "species": [
                    {
                        "element": "O",
                        "occu": 1
                    }
                ],
                "abc": [
                    0.60234618,
                    0.43385704,
                    0.83068108
                ],
                "xyz": [
                    3.2077919253780145,
                    3.6806160552624045,
                    9.101113545323871
                ],
                "label": "O",
                "properties": {}
            },
            {
                "species": [
                    {
                        "element": "O",
                        "occu": 1
                    }
                ],
                "abc": [
                    0.21853129,
                    0.80074873,
                    0.42115265
                ],
                "xyz": [
                    1.1260200705765409,
                    6.793133129449692,
                    4.613130085340457
                ],
                "label": "O",
                "properties": {}
            },
            {
                "species": [
                    {
                        "element": "O",
                        "occu": 1
                    }
                ],
                "abc": [
                    0.10997482,
                    0.18106458,
                    0.36432887
                ],
                "xyz": [
                    0.5186165893019973,
                    1.5360571311401194,
                    3.9896998615662778
                ],
                "label": "O",
                "properties": {}
            }
        ]
    },
    "spacegroup": {
        "source": "spglib",
        "symbol": "P2_1/c",
        "number": 14,
        "point_group": "2/m",
        "crystal_system": "monoclinic",
        "hall": "-P 2ybc"
    },
    "dielectric": {
        "epsilon_ionic": [
            [
                5.86640135,
                4e-08,
                1.18626818
            ],
            [
                4e-08,
                3.44080714,
                -1e-08
            ],
            [
                1.18626818,
                -1e-08,
                6.31673685
            ]
        ],
        "epsilon_ionic_avg": 5.207981780000002,
        "epsilon_ionic_eig": [
            7.2990179438524345,
            4.884120256147572,
            3.4408071400000004
        ],
        "epsilon_electronic": [
            [
                2.86588469,
                0.0,
                -0.00889522
            ],
            [
                0.0,
                2.93700366,
                0.0
            ],
            [
                -0.00890493,
                0.0,
                2.91083482
            ]
        ],
        "epsilon_electronic_avg": 2.90457439,
        "epsilon_electronic_eig": [
            2.8641866323595795,
            2.9125328776404205,
            2.93700366
        ]
    },
    "phonon": {
        "lowest_freq": -0.07799271334750396,
        "frequency": [
            -0.07799271334750396,
            -0.06474486980435094,
            -0.04744160263820826,
            1.291382313835982,
            1.4530761588327112,
            1.6906475559058132,
            1.9001358888435758,
            2.045032425949402,
            2.1664896594371434,
            2.181622880250327,
            2.2036782406788458,
            2.331298510645916,
            2.37867603828147,
            2.492104608074649,
            2.519982600226311,
            2.578211315031588,
            2.8562066969777726,
            2.873574833452924,
            3.0432100128546384,
            3.0551213590493664,
            3.2098621815381607,
            3.2262712444027253,
            3.2826504781643306,
            3.299222585944534,
            3.6168189497060728,
            3.680833769324749,
            3.6831920198843706,
            3.6992255097235893,
            3.8770285874476555,
            3.9546099559640644,
            4.241448782470888,
            4.429457455687665,
            4.595273074728005,
            4.700629600652666,
            4.755060857993063,
            4.755868386600677,
            4.859522134339507,
            4.97226707045485,
            5.195386607659043,
            5.431702218963159,
            5.462297352132997,
            5.73708421715916,
            5.853588209031809,
            6.046105363125694,
            6.363211565338224,
            6.496678553246396,
            6.5178073707405035,
            6.583480037909054,
            7.663982984957143,
            7.809423588016659,
            7.851277904388619,
            8.096429691925062,
            8.115557243728608,
            8.154046859772953,
            8.174352006199662,
            8.310407754191354,
            8.452964440926777,
            8.647392351329746,
            8.666678553828973,
            8.840006595037728,
            9.1586636304023,
            9.290409141683162,
            9.321154563785251,
            9.382381151997988,
            9.52336519341027,
            9.597642926176642,
            9.86103532724831,
            10.05378097695304,
            10.331631969536456,
            10.463870284302388,
            10.669918995996852,
            11.257839125459535,
            13.174245946656299,
            13.29730867192147,
            13.35411448182429,
            13.40268791662892,
            13.437767663747628,
            13.448415768305527,
            13.456708420426816,
            13.777118668077339,
            20.445361576781043,
            20.647970639325703,
            20.87583820148292,
            20.93241653394278,
            21.182483350298856,
            21.452471290449214,
            21.484727097738542,
            21.536522854503502,
            21.672643063395213,
            22.18117979652063,
            22.317827069483727,
            23.28116913406248,
            23.783641006491163,
            23.964947450743825,
            23.99120493951975,
            24.120602758839958
        ]
    },
    "born_effective_charge": {
        "avg_abs_trace": 1.7085745833333332,
        "tensors": [
            [
                [
                    1.09196,
                    0.09835,
                    -0.02461
                ],
                [
                    0.0285,
                    1.17132,
                    -0.00705
                ],
                [
                    -0.06182,
                    0.09241,
                    1.18246
                ]
            ],
            [
                [
                    1.25047,
                    -0.00078,
                    -0.00175
                ],
                [
                    0.0501,
                    1.32627,
                    -0.01647
                ],
                [
                    0.01558,
                    -0.10952,
                    1.18814
                ]
            ],
            [
                [
                    1.09194,
                    -0.09835,
                    -0.02464
                ],
                [
                    -0.0285,
                    1.17132,
                    0.00705
                ],
                [
                    -0.06182,
                    -0.09238,
                    1.18239
                ]
            ],
            [
                [
                    1.25047,
                    0.00078,
                    -0.00175
                ],
                [
                    -0.05016,
                    1.32628,
                    0.01642
                ],
                [
                    0.01558,
                    0.10952,
                    1.18814
                ]
            ],
            [
                [
                    1.2505,
                    0.00078,
                    -0.00176
                ],
                [
                    -0.0501,
                    1.32627,
                    0.01647
                ],
                [
                    0.01557,
                    0.10952,
                    1.18805
                ]
            ],
            [
                [
                    1.09196,
                    -0.09835,
                    -0.02461
                ],
                [
                    -0.02851,
                    1.17123,
                    0.00708
                ],
                [
                    -0.06182,
                    -0.09241,
                    1.18246
                ]
            ],
            [
                [
                    1.2505,
                    -0.00078,
                    -0.00176
                ],
                [
                    0.05016,
                    1.32628,
                    -0.01642
                ],
                [
                    0.01557,
                    -0.10952,
                    1.18805
                ]
            ],
            [
                [
                    1.09194,
                    0.09835,
                    -0.02464
                ],
                [
                    0.02851,
                    1.17123,
                    -0.00708
                ],
                [
                    -0.06182,
                    0.09238,
                    1.18239
                ]
            ],
            [
                [
                    1.20396,
                    0.11413,
                    -0.05708
                ],
                [
                    -0.1376,
                    1.14218,
                    -0.1414
                ],
                [
                    -0.02061,
                    0.09893,
                    1.15091
                ]
            ],
            [
                [
                    1.20397,
                    -0.11412,
                    -0.05708
                ],
                [
                    0.1376,
                    1.14218,
                    0.1414
                ],
                [
                    -0.02061,
                    -0.09895,
                    1.15092
                ]
            ],
            [
                [
                    1.20396,
                    -0.11413,
                    -0.05708
                ],
                [
                    0.13761,
                    1.14218,
                    0.14139
                ],
                [
                    -0.02061,
                    -0.09893,
                    1.15091
                ]
            ],
            [
                [
                    1.20397,
                    0.11412,
                    -0.05708
                ],
                [
                    -0.13761,
                    1.14218,
                    -0.14139
                ],
                [
                    -0.02061,
                    0.09895,
                    1.15092
                ]
            ],
            [
                [
                    3.11623,
                    0.09289,
                    -0.01417
                ],
                [
                    0.13386,
                    3.39628,
                    0.08282
                ],
                [
                    -0.01619,
                    -0.00804,
                    3.28312
                ]
            ],
            [
                [
                    3.11556,
                    -0.09266,
                    -0.01398
                ],
                [
                    -0.13386,
                    3.39628,
                    -0.08282
                ],
                [
                    -0.01591,
                    0.00833,
                    3.28314
                ]
            ],
            [
                [
                    3.11623,
                    -0.09289,
                    -0.01417
                ],
                [
                    -0.13313,
                    3.39633,
                    -0.08204
                ],
                [
                    -0.01619,
                    0.00804,
                    3.28312
                ]
            ],
            [
                [
                    3.11556,
                    0.09266,
                    -0.01398
                ],
                [
                    0.13313,
                    3.39633,
                    0.08204
                ],
                [
                    -0.01591,
                    -0.00833,
                    3.28314
                ]
            ],
            [
                [
                    -2.63068,
                    0.29572,
                    0.46974
                ],
                [
                    0.24891,
                    -1.14065,
                    -0.09154
                ],
                [
                    0.42116,
                    0.00816,
                    -1.17486
                ]
            ],
            [
                [
                    -1.02685,
                    0.01484,
                    0.19345
                ],
                [
                    -0.00783,
                    -1.12976,
                    0.16545
                ],
                [
                    0.17071,
                    0.1207,
                    -2.80363
                ]
            ],
            [
                [
                    -1.81225,
                    0.71174,
                    -0.47386
                ],
                [
                    0.83917,
                    -1.99792,
                    0.6855
                ],
                [
                    -0.42493,
                    0.5225,
                    -1.50298
                ]
            ],
            [
                [
                    -1.19232,
                    -0.33629,
                    -0.09137
                ],
                [
                    -0.40432,
                    -2.76769,
                    -0.4176
                ],
                [
                    -0.08412,
                    -0.34777,
                    -1.32376
                ]
            ],
            [
                [
                    -1.02691,
                    -0.01499,
                    0.19283
                ],
                [
                    0.00783,
                    -1.12976,
                    -0.16545
                ],
                [
                    0.17065,
                    -0.12051,
                    -2.80291
                ]
            ],
            [
                [
                    -2.63112,
                    -0.29576,
                    0.46978
                ],
                [
                    -0.24891,
                    -1.14065,
                    0.09154
                ],
                [
                    0.42149,
                    -0.00819,
                    -1.17489
                ]
            ],
            [
                [
                    -1.19209,
                    0.33616,
                    -0.09157
                ],
                [
                    0.40432,
                    -2.76769,
                    0.4176
                ],
                [
                    -0.08392,
                    0.34762,
                    -1.32336
                ]
            ],
            [
                [
                    -1.81238,
                    -0.71192,
                    -0.47391
                ],
                [
                    -0.83917,
                    -1.99792,
                    -0.6855
                ],
                [
                    -0.42523,
                    -0.52284,
                    -1.50274
                ]
            ],
            [
                [
                    -1.81225,
                    -0.71174,
                    -0.47386
                ],
                [
                    -0.83893,
                    -1.99796,
                    -0.68538
                ],
                [
                    -0.42493,
                    -0.5225,
                    -1.50298
                ]
            ],
            [
                [
                    -1.19232,
                    0.33629,
                    -0.09137
                ],
                [
                    0.40429,
                    -2.76762,
                    0.41758
                ],
                [
                    -0.08412,
                    0.34777,
                    -1.32376
                ]
            ],
            [
                [
                    -2.63068,
                    -0.29572,
                    0.46974
                ],
                [
                    -0.24852,
                    -1.14075,
                    0.09151
                ],
                [
                    0.42116,
                    -0.00816,
                    -1.17486
                ]
            ],
            [
                [
                    -1.02685,
                    -0.01484,
                    0.19345
                ],
                [
                    0.00786,
                    -1.12971,
                    -0.16524
                ],
                [
                    0.17071,
                    -0.1207,
                    -2.80363
                ]
            ],
            [
                [
                    -1.19209,
                    -0.33616,
                    -0.09157
                ],
                [
                    -0.40429,
                    -2.76762,
                    -0.41758
                ],
                [
                    -0.08392,
                    -0.34762,
                    -1.32336
                ]
            ],
            [
                [
                    -1.81238,
                    0.71192,
                    -0.47391
                ],
                [
                    0.83893,
                    -1.99796,
                    0.68538
                ],
                [
                    -0.42523,
                    0.52284,
                    -1.50274
                ]
            ],
            [
                [
                    -1.02691,
                    0.01499,
                    0.19283
                ],
                [
                    -0.00786,
                    -1.12971,
                    0.16524
                ],
                [
                    0.17065,
                    0.12051,
                    -2.80291
                ]
            ],
            [
                [
                    -2.63112,
                    0.29576,
                    0.46978
                ],
                [
                    0.24852,
                    -1.14075,
                    -0.09151
                ],
                [
                    0.42149,
                    0.00819,
                    -1.17489
                ]
            ]
        ]
    },
    "band_gap": 4.1606000000000005,
    "is_direct": false,
    "formula": "K2LiNbO4"
}