{
    "mp_id": "mp-7118",
    "nelements": 3,
    "nsites": 18,
    "elements": [
        "O",
        "Rb",
        "Sn"
    ],
    "structure": {
        "@module": "pymatgen.core.structure",
        "@class": "Structure",
        "charge": null,
        "lattice": {
            "matrix": [
                [
                    6.76044896,
                    0.00127995,
                    0.00172946
                ],
                [
                    2.68446339,
                    6.22736057,
                    -0.00026285
                ],
                [
                    1.86960195,
                    2.66717463,
                    9.55476779
                ]
            ],
            "a": 6.760449302381386,
            "b": 6.7813246073411895,
            "c": 10.094692639163458,
            "alpha": 71.58416825419674,
            "beta": 79.30979802304398,
            "gamma": 66.66945707983137,
            "volume": 402.21752286800665
        },
        "sites": [
            {
                "species": [
                    {
                        "element": "Rb",
                        "occu": 1
                    }
                ],
                "abc": [
                    0.74384587,
                    0.58978073,
                    0.16431148
                ],
                "xyz": [
                    6.919173879469656,
                    4.111976759342875,
                    1.571089464444679
                ],
                "label": "Rb",
                "properties": {}
            },
            {
                "species": [
                    {
                        "element": "Rb",
                        "occu": 1
                    }
                ],
                "abc": [
                    0.25615413,
                    0.41021927,
                    0.83568852
                ],
                "xyz": [
                    4.395340420530344,
                    4.783838390657126,
                    7.985144935555321
                ],
                "label": "Rb",
                "properties": {}
            },
            {
                "species": [
                    {
                        "element": "Rb",
                        "occu": 1
                    }
                ],
                "abc": [
                    0.76066419,
                    0.23599963,
                    0.97152155
                ],
                "xyz": [
                    7.59232238333031,
                    4.061846033184856,
                    9.283916319018164
                ],
                "label": "Rb",
                "properties": {}
            },
            {
                "species": [
                    {
                        "element": "Rb",
                        "occu": 1
                    }
                ],
                "abc": [
                    0.23933581,
                    0.76400037,
                    0.02847845
                ],
                "xyz": [
                    3.722191916669689,
                    4.833969116815144,
                    0.2723180809818336
                ],
                "label": "Rb",
                "properties": {}
            },
            {
                "species": [
                    {
                        "element": "Rb",
                        "occu": 1
                    }
                ],
                "abc": [
                    0.2763718,
                    0.50834557,
                    0.44143094
                ],
                "xyz": [
                    4.058332666231344,
                    4.343378304702637,
                    4.218114482361576
                ],
                "label": "Rb",
                "properties": {}
            },
            {
                "species": [
                    {
                        "element": "Rb",
                        "occu": 1
                    }
                ],
                "abc": [
                    0.7236282,
                    0.49165443,
                    0.55856906
                ],
                "xyz": [
                    7.256181633768657,
                    4.552436845297363,
                    5.338119917638424
                ],
                "label": "Rb",
                "properties": {}
            },
            {
                "species": [
                    {
                        "element": "Rb",
                        "occu": 1
                    }
                ],
                "abc": [
                    0.78228506,
                    0.03667066,
                    0.38087652
                ],
                "xyz": [
                    6.099126749058889,
                    1.2452268992291107,
                    3.640529997100177
                ],
                "label": "Rb",
                "properties": {}
            },
            {
                "species": [
                    {
                        "element": "Rb",
                        "occu": 1
                    }
                ],
                "abc": [
                    0.21771494,
                    0.96332934,
                    0.61912348
                ],
                "xyz": [
                    5.215387550941111,
                    7.650588250770889,
                    5.915704402899822
                ],
                "label": "Rb",
                "properties": {}
            },
            {
                "species": [
                    {
                        "element": "Sn",
                        "occu": 1
                    }
                ],
                "abc": [
                    0.72504589,
                    0.8433529,
                    0.75254747
                ],
                "xyz": [
                    8.572549935282671,
                    7.259966138396745,
                    7.191448589357145
                ],
                "label": "Sn",
                "properties": {}
            },
            {
                "species": [
                    {
                        "element": "Sn",
                        "occu": 1
                    }
                ],
                "abc": [
                    0.27495411,
                    0.1566471,
                    0.24745253
                ],
                "xyz": [
                    2.7419643647173277,
                    1.6358490116032556,
                    2.364785810642854
                ],
                "label": "Sn",
                "properties": {}
            },
            {
                "species": [
                    {
                        "element": "O",
                        "occu": 1
                    }
                ],
                "abc": [
                    0.87241864,
                    0.83742175,
                    0.90693525
                ],
                "xyz": [
                    9.841577629261083,
                    7.634998528501374,
                    8.666844411149743
                ],
                "label": "O",
                "properties": {}
            },
            {
                "species": [
                    {
                        "element": "O",
                        "occu": 1
                    }
                ],
                "abc": [
                    0.12758136,
                    0.16257825,
                    0.09306475
                ],
                "xyz": [
                    1.4729366707389158,
                    1.2608166214986272,
                    0.8893899888502557
                ],
                "label": "O",
                "properties": {}
            },
            {
                "species": [
                    {
                        "element": "O",
                        "occu": 1
                    }
                ],
                "abc": [
                    0.03662519,
                    0.29980538,
                    0.37560459
                ],
                "xyz": [
                    1.7546503682732912,
                    2.8688461138573587,
                    3.5887991762651206
                ],
                "label": "O",
                "properties": {}
            },
            {
                "species": [
                    {
                        "element": "O",
                        "occu": 1
                    }
                ],
                "abc": [
                    0.96337481,
                    0.70019462,
                    0.62439541
                ],
                "xyz": [
                    9.55986393172671,
                    6.02696903614264,
                    5.96743522373488
                ],
                "label": "O",
                "properties": {}
            },
            {
                "species": [
                    {
                        "element": "O",
                        "occu": 1
                    }
                ],
                "abc": [
                    0.46177634,
                    0.33924398,
                    0.18926152
                ],
                "xyz": [
                    4.386347128945462,
                    2.6179791598674895,
                    1.8090593286112742
                ],
                "label": "O",
                "properties": {}
            },
            {
                "species": [
                    {
                        "element": "O",
                        "occu": 1
                    }
                ],
                "abc": [
                    0.53822366,
                    0.66075602,
                    0.81073848
                ],
                "xyz": [
                    6.928167171054537,
                    6.277835990132511,
                    7.747175071388726
                ],
                "label": "O",
                "properties": {}
            },
            {
                "species": [
                    {
                        "element": "O",
                        "occu": 1
                    }
                ],
                "abc": [
                    0.45342208,
                    0.85049616,
                    0.35181069
                ],
                "xyz": [
                    6.006208586087465,
                    6.235267156242502,
                    3.3620300714244955
                ],
                "label": "O",
                "properties": {}
            },
            {
                "species": [
                    {
                        "element": "O",
                        "occu": 1
                    }
                ],
                "abc": [
                    0.54657792,
                    0.14950384,
                    0.64818931
                ],
                "xyz": [
                    5.308305713912536,
                    2.660547993757498,
                    6.194204328575505
                ],
                "label": "O",
                "properties": {}
            }
        ]
    },
    "spacegroup": {
        "source": "spglib",
        "symbol": "P-1",
        "number": 2,
        "point_group": "-1",
        "crystal_system": "triclinic",
        "hall": "-P 1"
    },
    "dielectric": {
        "epsilon_ionic": [
            [
                5.6672872,
                -0.31409222,
                -0.18992179
            ],
            [
                -0.31409222,
                5.51339555,
                0.63099708
            ],
            [
                -0.18992179,
                0.63099708,
                5.25756722
            ]
        ],
        "epsilon_ionic_avg": 5.4794166566666656,
        "epsilon_ionic_eig": [
            6.254758099201676,
            5.44508613826684,
            4.738405732531483
        ],
        "epsilon_electronic": [
            [
                3.04563807,
                -0.0123666,
                0.02649353
            ],
            [
                -0.0123659,
                3.01855414,
                -0.01594012
            ],
            [
                0.02649289,
                -0.01594081,
                3.03107787
            ]
        ],
        "epsilon_electronic_avg": 3.0317566933333335,
        "epsilon_electronic_eig": [
            3.072886785329991,
            3.016078344112826,
            3.0063049505571833
        ]
    },
    "phonon": {
        "lowest_freq": -0.049348585040017,
        "frequency": [
            -0.049348585040017,
            -0.0298141630217377,
            -0.01901263624513085,
            1.1526612647528218,
            1.4063415237487835,
            1.4854003050384703,
            1.740892137579195,
            1.826376248111381,
            1.8286592040378773,
            1.9339369261172523,
            1.93857535767349,
            2.0647932111414953,
            2.116526772185163,
            2.232475549997591,
            2.253181566594709,
            2.424031556393086,
            2.511786816062905,
            2.6013139299636503,
            2.6439424008135353,
            2.7830106033896693,
            2.818376813853165,
            3.046839501874813,
            3.18531694025878,
            3.225159334011654,
            3.4211113490919103,
            3.5501239894340015,
            3.6145561165423508,
            3.7390325203254307,
            3.9188348494397784,
            3.964386783103182,
            4.533057528768624,
            4.533646396784484,
            4.624169203156051,
            5.060559598766777,
            5.2666785602807265,
            5.340162991824673,
            6.798439554926419,
            7.030746642991372,
            7.408732724674705,
            7.452159363130905,
            7.660374307537155,
            7.828190271274636,
            8.203070049961378,
            8.302630616608633,
            8.76277866853291,
            9.100557349081821,
            16.368869295630017,
            16.371817039819277,
            16.375802357609743,
            16.64365604617738,
            17.02919233024356,
            17.5419802137977,
            18.27478620764512,
            18.288443198360337
        ]
    },
    "born_effective_charge": {
        "avg_abs_trace": 1.653657777777778,
        "tensors": [
            [
                [
                    1.14424,
                    -0.11157,
                    -0.02417
                ],
                [
                    -0.0846,
                    1.19812,
                    -0.00543
                ],
                [
                    -0.06529,
                    -0.07733,
                    1.24179
                ]
            ],
            [
                [
                    1.14435,
                    -0.11156,
                    -0.02398
                ],
                [
                    -0.08474,
                    1.1982,
                    -0.0054
                ],
                [
                    -0.06531,
                    -0.07736,
                    1.24179
                ]
            ],
            [
                [
                    1.13125,
                    -0.01578,
                    -0.00047
                ],
                [
                    -0.04728,
                    1.26806,
                    0.00913
                ],
                [
                    0.0878,
                    0.07466,
                    1.13892
                ]
            ],
            [
                [
                    1.13133,
                    -0.01597,
                    -0.00044
                ],
                [
                    -0.0473,
                    1.2681,
                    0.00904
                ],
                [
                    0.08797,
                    0.07439,
                    1.13891
                ]
            ],
            [
                [
                    1.10556,
                    0.0463,
                    -0.01915
                ],
                [
                    0.09612,
                    1.34205,
                    0.12381
                ],
                [
                    -0.04305,
                    0.11408,
                    1.16121
                ]
            ],
            [
                [
                    1.10566,
                    0.04635,
                    -0.01895
                ],
                [
                    0.09621,
                    1.34208,
                    0.12375
                ],
                [
                    -0.04304,
                    0.11406,
                    1.16105
                ]
            ],
            [
                [
                    1.3233,
                    0.05177,
                    0.09345
                ],
                [
                    0.02425,
                    0.95448,
                    -0.11384
                ],
                [
                    0.06241,
                    -0.10937,
                    1.25065
                ]
            ],
            [
                [
                    1.32327,
                    0.05177,
                    0.09342
                ],
                [
                    0.0242,
                    0.9545,
                    -0.11381
                ],
                [
                    0.06248,
                    -0.10936,
                    1.25073
                ]
            ],
            [
                [
                    2.76589,
                    0.01205,
                    0.08134
                ],
                [
                    -0.00614,
                    2.63152,
                    -0.05129
                ],
                [
                    0.09403,
                    -0.06293,
                    2.66717
                ]
            ],
            [
                [
                    2.76585,
                    0.01209,
                    0.08133
                ],
                [
                    -0.006,
                    2.63151,
                    -0.05136
                ],
                [
                    0.09385,
                    -0.06306,
                    2.66722
                ]
            ],
            [
                [
                    -1.87404,
                    -0.08228,
                    -0.38327
                ],
                [
                    -0.13267,
                    -1.60551,
                    -0.14665
                ],
                [
                    -0.46253,
                    -0.14944,
                    -2.06022
                ]
            ],
            [
                [
                    -1.8739,
                    -0.08213,
                    -0.38316
                ],
                [
                    -0.13239,
                    -1.60545,
                    -0.14647
                ],
                [
                    -0.46197,
                    -0.14937,
                    -2.05968
                ]
            ],
            [
                [
                    -1.87323,
                    0.25301,
                    0.14845
                ],
                [
                    0.24778,
                    -1.86238,
                    -0.33752
                ],
                [
                    0.18039,
                    -0.30026,
                    -1.90621
                ]
            ],
            [
                [
                    -1.87337,
                    0.25316,
                    0.14872
                ],
                [
                    0.24814,
                    -1.8628,
                    -0.33824
                ],
                [
                    0.18016,
                    -0.30041,
                    -1.90619
                ]
            ],
            [
                [
                    -2.12798,
                    -0.31668,
                    0.23533
                ],
                [
                    -0.28754,
                    -1.69976,
                    0.14683
                ],
                [
                    0.24848,
                    0.19772,
                    -1.7447
                ]
            ],
            [
                [
                    -2.12882,
                    -0.31712,
                    0.23565
                ],
                [
                    -0.28677,
                    -1.69929,
                    0.14671
                ],
                [
                    0.24772,
                    0.19701,
                    -1.74449
                ]
            ],
            [
                [
                    -1.59468,
                    0.16352,
                    -0.1322
                ],
                [
                    0.18927,
                    -2.22683,
                    0.37552
                ],
                [
                    -0.10213,
                    0.31357,
                    -1.74905
                ]
            ],
            [
                [
                    -1.59468,
                    0.16307,
                    -0.13191
                ],
                [
                    0.18947,
                    -2.22661,
                    0.37522
                ],
                [
                    -0.10196,
                    0.31339,
                    -1.74889
                ]
            ]
        ]
    },
    "band_gap": 2.2475,
    "is_direct": false,
    "formula": "Rb4SnO4"
}