{
    "mp_id": "mp-754363",
    "nelements": 3,
    "nsites": 7,
    "elements": [
        "Ba",
        "Hf",
        "O"
    ],
    "structure": {
        "@module": "pymatgen.core.structure",
        "@class": "Structure",
        "charge": null,
        "lattice": {
            "matrix": [
                [
                    -2.09062891,
                    2.09062891,
                    6.73044238
                ],
                [
                    2.09062891,
                    -2.09062891,
                    6.73044238
                ],
                [
                    2.09062891,
                    2.09062891,
                    -6.73044238
                ]
            ],
            "a": 7.3512116762582504,
            "b": 7.3512116762582504,
            "c": 7.3512116762582504,
            "alpha": 146.95493140881533,
            "beta": 146.95493140881533,
            "gamma": 47.430518248174025,
            "volume": 117.66776521550763
        },
        "sites": [
            {
                "species": [
                    {
                        "element": "Ba",
                        "occu": 1
                    }
                ],
                "abc": [
                    0.3524183,
                    0.3524183,
                    0.0
                ],
                "xyz": [
                    0.0,
                    0.0,
                    4.743862123615108
                ],
                "label": "Ba",
                "properties": {}
            },
            {
                "species": [
                    {
                        "element": "Ba",
                        "occu": 1
                    }
                ],
                "abc": [
                    0.6475817,
                    0.6475817,
                    0.0
                ],
                "xyz": [
                    0.0,
                    0.0,
                    8.717022636384893
                ],
                "label": "Ba",
                "properties": {}
            },
            {
                "species": [
                    {
                        "element": "Hf",
                        "occu": 1
                    }
                ],
                "abc": [
                    0.0,
                    0.0,
                    0.0
                ],
                "xyz": [
                    0.0,
                    0.0,
                    0.0
                ],
                "label": "Hf",
                "properties": {}
            },
            {
                "species": [
                    {
                        "element": "O",
                        "occu": 1
                    }
                ],
                "abc": [
                    0.5,
                    0.0,
                    0.5
                ],
                "xyz": [
                    0.0,
                    2.09062891,
                    0.0
                ],
                "label": "O",
                "properties": {}
            },
            {
                "species": [
                    {
                        "element": "O",
                        "occu": 1
                    }
                ],
                "abc": [
                    0.0,
                    0.5,
                    0.5
                ],
                "xyz": [
                    2.09062891,
                    0.0,
                    0.0
                ],
                "label": "O",
                "properties": {}
            },
            {
                "species": [
                    {
                        "element": "O",
                        "occu": 1
                    }
                ],
                "abc": [
                    0.15752716,
                    0.15752716,
                    0.0
                ],
                "xyz": [
                    0.0,
                    0.0,
                    2.1204549473300816
                ],
                "label": "O",
                "properties": {}
            },
            {
                "species": [
                    {
                        "element": "O",
                        "occu": 1
                    }
                ],
                "abc": [
                    0.84247284,
                    0.84247284,
                    0.0
                ],
                "xyz": [
                    0.0,
                    0.0,
                    11.34042981266992
                ],
                "label": "O",
                "properties": {}
            }
        ]
    },
    "spacegroup": {
        "source": "spglib",
        "symbol": "I4/mmm",
        "number": 139,
        "point_group": "4/mmm",
        "crystal_system": "tetragonal",
        "hall": "-I 4 2"
    },
    "dielectric": {
        "epsilon_ionic": [
            [
                24.66613909,
                -0.0,
                -0.0
            ],
            [
                -0.0,
                24.66718319,
                0.0
            ],
            [
                -0.0,
                0.0,
                11.63551864
            ]
        ],
        "epsilon_ionic_avg": 20.322946973333334,
        "epsilon_ionic_eig": [
            24.66613909,
            24.66718319,
            11.63551864
        ],
        "epsilon_electronic": [
            [
                4.229654,
                0.0,
                0.0
            ],
            [
                0.0,
                4.229654,
                0.0
            ],
            [
                0.0,
                -0.0,
                4.39686655
            ]
        ],
        "epsilon_electronic_avg": 4.2853915166666665,
        "epsilon_electronic_eig": [
            4.229654,
            4.229654,
            4.39686655
        ]
    },
    "phonon": {
        "lowest_freq": -0.014805028757734909,
        "frequency": [
            -0.014805028757734909,
            -0.00406463275202766,
            -0.004064632749021237,
            2.4844090281499676,
            2.4844090281499676,
            2.9803134550063617,
            2.9803134550063617,
            4.203447437634297,
            4.600398251058647,
            5.157277955830123,
            5.157277955830123,
            6.3520631621723584,
            6.3520631621723584,
            7.418703600573782,
            7.418703600573782,
            7.645190793394839,
            9.374545358871163,
            13.650032118230865,
            16.217168812934336,
            17.699492843306007,
            17.699492843306007
        ]
    },
    "born_effective_charge": {
        "avg_abs_trace": 2.995811428571429,
        "tensors": [
            [
                [
                    2.51195,
                    -0.0,
                    -2e-05
                ],
                [
                    -0.0,
                    2.51202,
                    8e-05
                ],
                [
                    -0.0,
                    -0.0,
                    2.92261
                ]
            ],
            [
                [
                    2.51195,
                    -0.0,
                    2e-05
                ],
                [
                    0.0,
                    2.51202,
                    -8e-05
                ],
                [
                    -0.0,
                    -0.0,
                    2.92249
                ]
            ],
            [
                [
                    5.33099,
                    0.0,
                    0.0
                ],
                [
                    0.0,
                    5.33098,
                    -0.0
                ],
                [
                    0.0,
                    0.0,
                    4.90101
                ]
            ],
            [
                [
                    -2.01435,
                    0.0,
                    0.0
                ],
                [
                    0.0,
                    -4.10437,
                    -0.0
                ],
                [
                    0.0,
                    0.0,
                    -1.85207
                ]
            ],
            [
                [
                    -4.10435,
                    0.0,
                    0.0
                ],
                [
                    0.0,
                    -2.01439,
                    -0.0
                ],
                [
                    0.0,
                    0.0,
                    -1.85207
                ]
            ],
            [
                [
                    -2.11809,
                    0.0,
                    6e-05
                ],
                [
                    0.0,
                    -2.11813,
                    -9e-05
                ],
                [
                    0.0,
                    0.0,
                    -3.521
                ]
            ],
            [
                [
                    -2.11809,
                    0.0,
                    -6e-05
                ],
                [
                    -0.0,
                    -2.11813,
                    9e-05
                ],
                [
                    -0.0,
                    -0.0,
                    -3.52098
                ]
            ]
        ]
    },
    "band_gap": 3.3826,
    "is_direct": false,
    "formula": "Ba2HfO4"
}