{
    "mp_id": "mp-755436",
    "nelements": 3,
    "nsites": 16,
    "elements": [
        "Na",
        "O",
        "V"
    ],
    "structure": {
        "@module": "pymatgen.core.structure",
        "@class": "Structure",
        "charge": null,
        "lattice": {
            "matrix": [
                [
                    6.98913688,
                    0.0,
                    0.0
                ],
                [
                    0.0,
                    6.04666622,
                    0.0
                ],
                [
                    0.0,
                    0.0,
                    5.49167791
                ]
            ],
            "a": 6.98913688,
            "b": 6.04666622,
            "c": 5.49167791,
            "alpha": 90.0,
            "beta": 90.0,
            "gamma": 90.0,
            "volume": 232.0836786744879
        },
        "sites": [
            {
                "species": [
                    {
                        "element": "Na",
                        "occu": 1
                    }
                ],
                "abc": [
                    0.0,
                    0.65379917,
                    0.4882577
                ],
                "xyz": [
                    0.0,
                    3.953305355903037,
                    2.681354025477407
                ],
                "label": "Na",
                "properties": {}
            },
            {
                "species": [
                    {
                        "element": "Na",
                        "occu": 1
                    }
                ],
                "abc": [
                    0.24489342,
                    0.82572495,
                    0.99008766
                ],
                "xyz": [
                    1.7115936333913297,
                    4.992883162176189,
                    5.437242531385591
                ],
                "label": "Na",
                "properties": {}
            },
            {
                "species": [
                    {
                        "element": "Na",
                        "occu": 1
                    }
                ],
                "abc": [
                    0.25510658,
                    0.17427505,
                    0.49008766
                ],
                "xyz": [
                    1.7829748066086706,
                    1.0537830578238108,
                    2.6914035763855906
                ],
                "label": "Na",
                "properties": {}
            },
            {
                "species": [
                    {
                        "element": "Na",
                        "occu": 1
                    }
                ],
                "abc": [
                    0.5,
                    0.34620083,
                    0.9882577
                ],
                "xyz": [
                    3.49456844,
                    2.0933608640969625,
                    5.427192980477407
                ],
                "label": "Na",
                "properties": {}
            },
            {
                "species": [
                    {
                        "element": "Na",
                        "occu": 1
                    }
                ],
                "abc": [
                    0.74489342,
                    0.17427505,
                    0.49008766
                ],
                "xyz": [
                    5.20616207339133,
                    1.0537830578238108,
                    2.6914035763855906
                ],
                "label": "Na",
                "properties": {}
            },
            {
                "species": [
                    {
                        "element": "Na",
                        "occu": 1
                    }
                ],
                "abc": [
                    0.75510658,
                    0.82572495,
                    0.99008766
                ],
                "xyz": [
                    5.27754324660867,
                    4.992883162176189,
                    5.437242531385591
                ],
                "label": "Na",
                "properties": {}
            },
            {
                "species": [
                    {
                        "element": "V",
                        "occu": 1
                    }
                ],
                "abc": [
                    0.0,
                    0.32361109,
                    6.198e-05
                ],
                "xyz": [
                    0.0,
                    1.9567682463203797,
                    0.0003403741968618
                ],
                "label": "V",
                "properties": {}
            },
            {
                "species": [
                    {
                        "element": "V",
                        "occu": 1
                    }
                ],
                "abc": [
                    0.5,
                    0.67638891,
                    0.50006198
                ],
                "xyz": [
                    3.49456844,
                    4.08989797367962,
                    2.746179329196862
                ],
                "label": "V",
                "properties": {}
            },
            {
                "species": [
                    {
                        "element": "O",
                        "occu": 1
                    }
                ],
                "abc": [
                    0.0,
                    0.59628577,
                    0.90216565
                ],
                "xyz": [
                    0.0,
                    3.6055410229256895,
                    4.954403171265792
                ],
                "label": "O",
                "properties": {}
            },
            {
                "species": [
                    {
                        "element": "O",
                        "occu": 1
                    }
                ],
                "abc": [
                    0.0,
                    0.31968931,
                    0.31353439
                ],
                "xyz": [
                    0.0,
                    1.933054551672108,
                    1.7218298835883248
                ],
                "label": "O",
                "properties": {}
            },
            {
                "species": [
                    {
                        "element": "O",
                        "occu": 1
                    }
                ],
                "abc": [
                    0.20507692,
                    0.18845876,
                    0.90026798
                ],
                "xyz": [
                    1.4333106648088096,
                    1.1395472179550872,
                    4.943981778846322
                ],
                "label": "O",
                "properties": {}
            },
            {
                "species": [
                    {
                        "element": "O",
                        "occu": 1
                    }
                ],
                "abc": [
                    0.29492308,
                    0.81154124,
                    0.40026798
                ],
                "xyz": [
                    2.0612577751911907,
                    4.9071190020449125,
                    2.198142823846322
                ],
                "label": "O",
                "properties": {}
            },
            {
                "species": [
                    {
                        "element": "O",
                        "occu": 1
                    }
                ],
                "abc": [
                    0.5,
                    0.68031069,
                    0.81353439
                ],
                "xyz": [
                    3.49456844,
                    4.113611668327891,
                    4.467668838588325
                ],
                "label": "O",
                "properties": {}
            },
            {
                "species": [
                    {
                        "element": "O",
                        "occu": 1
                    }
                ],
                "abc": [
                    0.5,
                    0.40371423,
                    0.40216565
                ],
                "xyz": [
                    3.49456844,
                    2.4411251970743106,
                    2.2085642162657915
                ],
                "label": "O",
                "properties": {}
            },
            {
                "species": [
                    {
                        "element": "O",
                        "occu": 1
                    }
                ],
                "abc": [
                    0.70507692,
                    0.81154124,
                    0.40026798
                ],
                "xyz": [
                    4.9278791048088095,
                    4.9071190020449125,
                    2.198142823846322
                ],
                "label": "O",
                "properties": {}
            },
            {
                "species": [
                    {
                        "element": "O",
                        "occu": 1
                    }
                ],
                "abc": [
                    0.79492308,
                    0.18845876,
                    0.90026798
                ],
                "xyz": [
                    5.555826215191191,
                    1.1395472179550872,
                    4.943981778846322
                ],
                "label": "O",
                "properties": {}
            }
        ]
    },
    "spacegroup": {
        "source": "spglib",
        "symbol": "Pmn2_1",
        "number": 31,
        "point_group": "mm2",
        "crystal_system": "orthorhombic",
        "hall": "P 2ac -2"
    },
    "dielectric": {
        "epsilon_ionic": [
            [
                2.40496813,
                -0.0,
                -1.28e-06
            ],
            [
                -0.0,
                2.10572373,
                -1.01e-06
            ],
            [
                -1.28e-06,
                -1.01e-06,
                2.66721844
            ]
        ],
        "epsilon_ionic_avg": 2.3926367666666666,
        "epsilon_ionic_eig": [
            2.4049681299937524,
            2.667218440008064,
            2.105723729998183
        ],
        "epsilon_electronic": [
            [
                2.64701471,
                0.0,
                0.0
            ],
            [
                0.0,
                2.57107313,
                0.0
            ],
            [
                0.0,
                0.0,
                2.65113355
            ]
        ],
        "epsilon_electronic_avg": 2.6230737966666666,
        "epsilon_electronic_eig": [
            2.64701471,
            2.57107313,
            2.65113355
        ]
    },
    "phonon": {
        "lowest_freq": -0.18217103127863588,
        "frequency": [
            -0.18217103127863588,
            -0.14433018445885146,
            -0.08417290311136053,
            2.7524163363982876,
            3.014406355479203,
            3.388859055041719,
            3.8070213820539895,
            4.134670236652074,
            4.243279713443071,
            4.736651970890175,
            4.932846283751458,
            5.493674786076934,
            5.637775754970871,
            5.777516320697478,
            5.992865918653211,
            6.029080073864273,
            6.441895951647961,
            6.528300790534596,
            6.695513214469303,
            6.9139865356244234,
            7.261913876094754,
            7.304153091842046,
            7.38304449940126,
            7.392201998869988,
            7.678585503058976,
            7.890995248494124,
            8.039423569886814,
            8.120003095236497,
            8.143899092132582,
            8.378649852079478,
            10.484692981946148,
            10.866393435472666,
            10.927035391594362,
            11.04687094581795,
            11.153761943615008,
            11.41285518191269,
            11.589524100228335,
            11.66127329231425,
            11.927584487334325,
            12.070038516226306,
            23.424890575763126,
            23.54125114315756,
            23.68442363675096,
            23.826484221439596,
            24.1162585475665,
            24.524658441315903,
            24.647238346971353,
            24.72739140039902
        ]
    },
    "born_effective_charge": {
        "avg_abs_trace": 1.4774720833333332,
        "tensors": [
            [
                [
                    1.24465,
                    0.0,
                    -0.0
                ],
                [
                    0.0,
                    0.85496,
                    -0.03028
                ],
                [
                    0.0,
                    0.17018,
                    1.08656
                ]
            ],
            [
                [
                    0.94594,
                    -0.11561,
                    0.08816
                ],
                [
                    0.10299,
                    1.15544,
                    -0.01555
                ],
                [
                    -0.14038,
                    0.08564,
                    1.05532
                ]
            ],
            [
                [
                    0.94594,
                    -0.11561,
                    -0.08816
                ],
                [
                    0.10299,
                    1.15544,
                    0.01555
                ],
                [
                    0.14038,
                    -0.08564,
                    1.05532
                ]
            ],
            [
                [
                    1.24465,
                    -0.0,
                    -0.0
                ],
                [
                    0.0,
                    0.85496,
                    0.03029
                ],
                [
                    0.0,
                    -0.17018,
                    1.08656
                ]
            ],
            [
                [
                    0.94594,
                    0.11561,
                    0.08816
                ],
                [
                    -0.10299,
                    1.15544,
                    0.01555
                ],
                [
                    -0.14038,
                    -0.08564,
                    1.05532
                ]
            ],
            [
                [
                    0.94594,
                    0.11561,
                    -0.08816
                ],
                [
                    -0.10299,
                    1.15544,
                    -0.01555
                ],
                [
                    0.14038,
                    0.08564,
                    1.05532
                ]
            ],
            [
                [
                    2.87538,
                    -0.0,
                    -0.0
                ],
                [
                    0.0,
                    2.52638,
                    -0.0017
                ],
                [
                    0.0,
                    -0.05282,
                    2.82834
                ]
            ],
            [
                [
                    2.87538,
                    0.0,
                    -0.0
                ],
                [
                    0.0,
                    2.52638,
                    0.0017
                ],
                [
                    0.0,
                    0.05282,
                    2.82834
                ]
            ],
            [
                [
                    -0.85512,
                    0.0,
                    -0.0
                ],
                [
                    0.0,
                    -2.38999,
                    0.5125
                ],
                [
                    0.0,
                    0.56359,
                    -1.06825
                ]
            ],
            [
                [
                    -0.80251,
                    0.0,
                    0.0
                ],
                [
                    0.0,
                    -0.71871,
                    0.00675
                ],
                [
                    0.0,
                    0.03173,
                    -2.81389
                ]
            ],
            [
                [
                    -2.17714,
                    0.81479,
                    0.51721
                ],
                [
                    0.62568,
                    -1.29177,
                    -0.26257
                ],
                [
                    0.52526,
                    -0.25892,
                    -1.0717
                ]
            ],
            [
                [
                    -2.17713,
                    0.81479,
                    -0.5172
                ],
                [
                    0.62567,
                    -1.29178,
                    0.26256
                ],
                [
                    -0.52526,
                    0.25892,
                    -1.0717
                ]
            ],
            [
                [
                    -0.80251,
                    -0.0,
                    0.0
                ],
                [
                    0.0,
                    -0.7187,
                    -0.00675
                ],
                [
                    0.0,
                    -0.03173,
                    -2.81389
                ]
            ],
            [
                [
                    -0.85512,
                    -0.0,
                    -0.0
                ],
                [
                    0.0,
                    -2.38994,
                    -0.51247
                ],
                [
                    0.0,
                    -0.56359,
                    -1.06825
                ]
            ],
            [
                [
                    -2.17714,
                    -0.81479,
                    0.51721
                ],
                [
                    -0.62567,
                    -1.29178,
                    0.26256
                ],
                [
                    0.52526,
                    0.25892,
                    -1.0717
                ]
            ],
            [
                [
                    -2.17713,
                    -0.81479,
                    -0.5172
                ],
                [
                    -0.62568,
                    -1.29177,
                    -0.26257
                ],
                [
                    -0.52526,
                    -0.25892,
                    -1.0717
                ]
            ]
        ]
    },
    "band_gap": 4.1747,
    "is_direct": false,
    "formula": "Na3VO4"
}