{
    "mp_id": "mp-755478",
    "nelements": 3,
    "nsites": 10,
    "elements": [
        "Bi",
        "Cd",
        "O"
    ],
    "structure": {
        "@module": "pymatgen.core.structure",
        "@class": "Structure",
        "charge": null,
        "lattice": {
            "matrix": [
                [
                    2.911776,
                    1.68111513,
                    4.93279985
                ],
                [
                    -2.911776,
                    1.68111512,
                    4.93279985
                ],
                [
                    0.0,
                    -3.36223025,
                    4.93279985
                ]
            ],
            "a": 5.969681893924578,
            "b": 5.969681891108491,
            "c": 5.969682287540526,
            "alpha": 58.38701608570884,
            "beta": 58.38701616582091,
            "gamma": 58.387004888120956,
            "volume": 144.87723945299012
        },
        "sites": [
            {
                "species": [
                    {
                        "element": "Cd",
                        "occu": 1
                    }
                ],
                "abc": [
                    0.63732077,
                    0.63732077,
                    0.63732077
                ],
                "xyz": [
                    0.0,
                    -4.440892098500626e-16,
                    9.431327395973653
                ],
                "label": "Cd",
                "properties": {}
            },
            {
                "species": [
                    {
                        "element": "Cd",
                        "occu": 1
                    }
                ],
                "abc": [
                    0.36673644,
                    0.36673644,
                    0.36673644
                ],
                "xyz": [
                    0.0,
                    0.0,
                    5.427112368664602
                ],
                "label": "Cd",
                "properties": {}
            },
            {
                "species": [
                    {
                        "element": "Bi",
                        "occu": 1
                    }
                ],
                "abc": [
                    0.86086478,
                    0.86086478,
                    0.86086478
                ],
                "xyz": [
                    0.0,
                    0.0,
                    12.739420972962849
                ],
                "label": "Bi",
                "properties": {}
            },
            {
                "species": [
                    {
                        "element": "Bi",
                        "occu": 1
                    }
                ],
                "abc": [
                    0.14946785,
                    0.14946785,
                    0.14946785
                ],
                "xyz": [
                    0.0,
                    0.0,
                    2.211884964179468
                ],
                "label": "Bi",
                "properties": {}
            },
            {
                "species": [
                    {
                        "element": "O",
                        "occu": 1
                    }
                ],
                "abc": [
                    0.51457251,
                    0.26400647,
                    0.95659284
                ],
                "xyz": [
                    0.7295921816870401,
                    -1.9074044830435075,
                    8.559255293420229
                ],
                "label": "O",
                "properties": {}
            },
            {
                "species": [
                    {
                        "element": "O",
                        "occu": 1
                    }
                ],
                "abc": [
                    0.26400647,
                    0.95659284,
                    0.51457251
                ],
                "xyz": [
                    -2.01665637009312,
                    0.3218566992022045,
                    8.559255293420229
                ],
                "label": "O",
                "properties": {}
            },
            {
                "species": [
                    {
                        "element": "O",
                        "occu": 1
                    }
                ],
                "abc": [
                    0.95659284,
                    0.51457251,
                    0.26400647
                ],
                "xyz": [
                    1.2870641884060798,
                    1.585547783841303,
                    8.559255293420229
                ],
                "label": "O",
                "properties": {}
            },
            {
                "species": [
                    {
                        "element": "O",
                        "occu": 1
                    }
                ],
                "abc": [
                    0.03410125,
                    0.43391735,
                    0.78285073
                ],
                "xyz": [
                    -1.1641749243936002,
                    -1.845331260398338,
                    6.170288043393601
                ],
                "label": "O",
                "properties": {}
            },
            {
                "species": [
                    {
                        "element": "O",
                        "occu": 1
                    }
                ],
                "abc": [
                    0.78285073,
                    0.03410125,
                    0.43391735
                ],
                "xyz": [
                    2.1801907658764805,
                    -0.08553970644939235,
                    6.170288043393601
                ],
                "label": "O",
                "properties": {}
            },
            {
                "species": [
                    {
                        "element": "O",
                        "occu": 1
                    }
                ],
                "abc": [
                    0.43391735,
                    0.78285073,
                    0.03410125
                ],
                "xyz": [
                    -1.0160158414828804,
                    1.9308709668477306,
                    6.170288043393601
                ],
                "label": "O",
                "properties": {}
            }
        ]
    },
    "spacegroup": {
        "source": "spglib",
        "symbol": "R3",
        "number": 146,
        "point_group": "3",
        "crystal_system": "trigonal",
        "hall": "R 3"
    },
    "dielectric": {
        "epsilon_ionic": [
            [
                14.48434461,
                0.00037288,
                0.00010746
            ],
            [
                0.00037288,
                14.48504642,
                0.00060834
            ],
            [
                0.00010746,
                0.00060834,
                10.72078242
            ]
        ],
        "epsilon_ionic_avg": 13.230057816666667,
        "epsilon_ionic_eig": [
            14.484183491293438,
            14.48520764008479,
            10.720782318621776
        ],
        "epsilon_electronic": [
            [
                8.25426723,
                -4.914e-05,
                0.0
            ],
            [
                4.914e-05,
                8.25427059,
                0.0
            ],
            [
                0.0,
                -0.0,
                6.43506744
            ]
        ],
        "epsilon_electronic_avg": 7.647868420000001,
        "epsilon_electronic_eig": [
            8.25426891,
            8.25426891,
            6.43506744
        ]
    },
    "phonon": {
        "lowest_freq": -0.025103874962500123,
        "frequency": [
            -0.025103874962500123,
            -0.025103869851333734,
            -0.012060296201751112,
            2.67630402723662,
            3.375338815425823,
            3.375339213667516,
            3.4483592785176294,
            3.6570110471532438,
            3.657011274377173,
            4.408900168668374,
            4.780849594105394,
            4.780850228001393,
            5.751723857281394,
            5.751724069739547,
            7.503927100274845,
            7.503927849376306,
            7.676200232725345,
            8.521870470650653,
            8.991663845947322,
            8.991664321610363,
            9.528789146781817,
            11.157111737444565,
            11.157112788899997,
            12.681710781677506,
            12.947067508881938,
            12.947067886419363,
            14.367156710973257,
            14.859210505031633,
            14.85921071062813,
            16.60770990199194
        ]
    },
    "born_effective_charge": {
        "avg_abs_trace": 2.8693333333333335,
        "tensors": [
            [
                [
                    2.63699,
                    -0.06296,
                    -9e-05
                ],
                [
                    0.06287,
                    2.63712,
                    -9e-05
                ],
                [
                    -0.0,
                    -0.0,
                    2.76275
                ]
            ],
            [
                [
                    2.53762,
                    -0.04163,
                    -2e-05
                ],
                [
                    0.04169,
                    2.53759,
                    -0.00019
                ],
                [
                    -0.0,
                    -0.0,
                    2.80021
                ]
            ],
            [
                [
                    5.42566,
                    -0.01507,
                    1e-05
                ],
                [
                    0.01506,
                    5.42571,
                    0.00043
                ],
                [
                    -0.0,
                    -0.0,
                    2.93467
                ]
            ],
            [
                [
                    4.75564,
                    0.20198,
                    0.00021
                ],
                [
                    -0.20183,
                    4.75573,
                    0.00065
                ],
                [
                    -0.0,
                    -0.0,
                    3.83031
                ]
            ],
            [
                [
                    -1.97197,
                    0.25523,
                    0.54875
                ],
                [
                    0.0052,
                    -3.16672,
                    0.03487
                ],
                [
                    0.58086,
                    -0.23357,
                    -2.05169
                ]
            ],
            [
                [
                    -2.75566,
                    -0.45834,
                    -0.30472
                ],
                [
                    -0.70806,
                    -2.38443,
                    0.45777
                ],
                [
                    -0.08816,
                    0.61982,
                    -2.05169
                ]
            ],
            [
                [
                    -2.98122,
                    0.57751,
                    -0.24385
                ],
                [
                    0.3283,
                    -2.15784,
                    -0.49278
                ],
                [
                    -0.49271,
                    -0.38626,
                    -2.05169
                ]
            ],
            [
                [
                    -2.75474,
                    0.3718,
                    -0.18894
                ],
                [
                    0.67671,
                    -2.34346,
                    -0.41674
                ],
                [
                    -0.36942,
                    -0.45113,
                    -2.05762
                ]
            ],
            [
                [
                    -2.9001,
                    -0.59251,
                    -0.26638
                ],
                [
                    -0.28847,
                    -2.19833,
                    0.37134
                ],
                [
                    -0.20598,
                    0.54549,
                    -2.05762
                ]
            ],
            [
                [
                    -1.99222,
                    -0.236,
                    0.45502
                ],
                [
                    0.06852,
                    -3.10538,
                    0.04475
                ],
                [
                    0.5754,
                    -0.09436,
                    -2.05762
                ]
            ]
        ]
    },
    "band_gap": 0.7753000000000001,
    "is_direct": false,
    "formula": "CdBiO3"
}