{
    "mp_id": "mp-753401",
    "nelements": 3,
    "nsites": 16,
    "elements": [
        "O",
        "Sc",
        "Ti"
    ],
    "structure": {
        "@module": "pymatgen.core.structure",
        "@class": "Structure",
        "charge": null,
        "lattice": {
            "matrix": [
                [
                    1.93766402,
                    -5.05870003,
                    0.0
                ],
                [
                    1.93766402,
                    5.05870003,
                    0.0
                ],
                [
                    0.0,
                    0.0,
                    10.1813994
                ]
            ],
            "a": 5.417101424925009,
            "b": 5.417101424925009,
            "c": 10.1813994,
            "alpha": 90.0,
            "beta": 90.0,
            "gamma": 138.08272681394791,
            "volume": 199.59739670350365
        },
        "sites": [
            {
                "species": [
                    {
                        "element": "Sc",
                        "occu": 1
                    }
                ],
                "abc": [
                    0.63800655,
                    0.36199345,
                    0.56227519
                ],
                "xyz": [
                    1.9376640199999997,
                    -1.3962674772503925,
                    5.724748282100887
                ],
                "label": "Sc",
                "properties": {}
            },
            {
                "species": [
                    {
                        "element": "Sc",
                        "occu": 1
                    }
                ],
                "abc": [
                    0.69501473,
                    0.30498527,
                    0.25039746
                ],
                "xyz": [
                    1.93766402,
                    -1.9730420410028842,
                    2.5493965490055244
                ],
                "label": "Sc",
                "properties": {}
            },
            {
                "species": [
                    {
                        "element": "Sc",
                        "occu": 1
                    }
                ],
                "abc": [
                    0.30498527,
                    0.69501473,
                    0.75039746
                ],
                "xyz": [
                    1.93766402,
                    1.9730420410028842,
                    7.6400962490055235
                ],
                "label": "Sc",
                "properties": {}
            },
            {
                "species": [
                    {
                        "element": "Sc",
                        "occu": 1
                    }
                ],
                "abc": [
                    0.36199345,
                    0.63800655,
                    0.06227519
                ],
                "xyz": [
                    1.9376640199999997,
                    1.3962674772503925,
                    0.634048582100886
                ],
                "label": "Sc",
                "properties": {}
            },
            {
                "species": [
                    {
                        "element": "Ti",
                        "occu": 1
                    }
                ],
                "abc": [
                    0.6357814,
                    0.3642186,
                    0.94055651
                ],
                "xyz": [
                    1.9376640200000002,
                    -1.3737547445068843,
                    9.576181486580094
                ],
                "label": "Ti",
                "properties": {}
            },
            {
                "species": [
                    {
                        "element": "Ti",
                        "occu": 1
                    }
                ],
                "abc": [
                    0.3642186,
                    0.6357814,
                    0.44055651
                ],
                "xyz": [
                    1.9376640200000002,
                    1.3737547445068843,
                    4.485481786580094
                ],
                "label": "Ti",
                "properties": {}
            },
            {
                "species": [
                    {
                        "element": "O",
                        "occu": 1
                    }
                ],
                "abc": [
                    0.55209771,
                    0.44790229,
                    0.111386
                ],
                "xyz": [
                    1.93766402,
                    -0.5270933742798625,
                    1.1340653535684
                ],
                "label": "O",
                "properties": {}
            },
            {
                "species": [
                    {
                        "element": "O",
                        "occu": 1
                    }
                ],
                "abc": [
                    0.81331653,
                    0.18668347,
                    0.4298808
                ],
                "xyz": [
                    1.93766402,
                    -3.1699486794209912,
                    4.37678811919152
                ],
                "label": "O",
                "properties": {}
            },
            {
                "species": [
                    {
                        "element": "O",
                        "occu": 1
                    }
                ],
                "abc": [
                    0.72890188,
                    0.27109812,
                    0.75729755
                ],
                "xyz": [
                    1.93766402,
                    -2.3158918944461124,
                    7.71034882119147
                ],
                "label": "O",
                "properties": {}
            },
            {
                "species": [
                    {
                        "element": "O",
                        "occu": 1
                    }
                ],
                "abc": [
                    0.80043132,
                    0.19956868,
                    0.06715985
                ],
                "xyz": [
                    1.9376640199999997,
                    -3.0395838549938787,
                    0.6837812564940899
                ],
                "label": "O",
                "properties": {}
            },
            {
                "species": [
                    {
                        "element": "O",
                        "occu": 1
                    }
                ],
                "abc": [
                    0.54107458,
                    0.45892542,
                    0.38104363
                ],
                "xyz": [
                    1.93766402,
                    -0.41556795815647485,
                    3.879557385855822
                ],
                "label": "O",
                "properties": {}
            },
            {
                "species": [
                    {
                        "element": "O",
                        "occu": 1
                    }
                ],
                "abc": [
                    0.27109812,
                    0.72890188,
                    0.25729755
                ],
                "xyz": [
                    1.93766402,
                    2.3158918944461124,
                    2.61964912119147
                ],
                "label": "O",
                "properties": {}
            },
            {
                "species": [
                    {
                        "element": "O",
                        "occu": 1
                    }
                ],
                "abc": [
                    0.18668347,
                    0.81331653,
                    0.9298808
                ],
                "xyz": [
                    1.93766402,
                    3.1699486794209912,
                    9.46748781919152
                ],
                "label": "O",
                "properties": {}
            },
            {
                "species": [
                    {
                        "element": "O",
                        "occu": 1
                    }
                ],
                "abc": [
                    0.44790229,
                    0.55209771,
                    0.611386
                ],
                "xyz": [
                    1.93766402,
                    0.5270933742798625,
                    6.2247650535684
                ],
                "label": "O",
                "properties": {}
            },
            {
                "species": [
                    {
                        "element": "O",
                        "occu": 1
                    }
                ],
                "abc": [
                    0.45892542,
                    0.54107458,
                    0.88104363
                ],
                "xyz": [
                    1.93766402,
                    0.41556795815647485,
                    8.970257085855822
                ],
                "label": "O",
                "properties": {}
            },
            {
                "species": [
                    {
                        "element": "O",
                        "occu": 1
                    }
                ],
                "abc": [
                    0.19956868,
                    0.80043132,
                    0.56715985
                ],
                "xyz": [
                    1.9376640199999997,
                    3.0395838549938787,
                    5.774480956494091
                ],
                "label": "O",
                "properties": {}
            }
        ]
    },
    "spacegroup": {
        "source": "spglib",
        "symbol": "Cmc2_1",
        "number": 36,
        "point_group": "mm2",
        "crystal_system": "orthorhombic",
        "hall": "C 2c -2"
    },
    "dielectric": {
        "epsilon_ionic": [
            [
                10.25890227,
                0.0,
                -1.31e-06
            ],
            [
                0.0,
                9.39729636,
                1.3e-07
            ],
            [
                -1.31e-06,
                1.3e-07,
                12.84100142
            ]
        ],
        "epsilon_ionic_avg": 10.832400016666663,
        "epsilon_ionic_eig": [
            10.258902269999334,
            12.841001420000667,
            9.397296359999991
        ],
        "epsilon_electronic": [
            [
                4.76226698,
                0.0,
                0.0
            ],
            [
                0.0,
                4.92245544,
                0.0
            ],
            [
                0.0,
                0.0,
                4.80632847
            ]
        ],
        "epsilon_electronic_avg": 4.8303502966666665,
        "epsilon_electronic_eig": [
            4.76226698,
            4.92245544,
            4.80632847
        ]
    },
    "phonon": {
        "lowest_freq": -0.040220538823318844,
        "frequency": [
            -0.040220538823318844,
            -0.03850721443112566,
            -0.036474335240414636,
            3.7849826731390808,
            3.920288114191324,
            4.302866579817937,
            4.551457587583543,
            4.927406891986865,
            5.40270426358367,
            6.310105030832469,
            6.438811442253431,
            7.17964232402391,
            7.245152740354334,
            7.468290186710871,
            7.547771773014356,
            7.731219268649271,
            7.855886993209032,
            8.061875011611285,
            8.955488412263845,
            9.370496722347378,
            10.044056720879729,
            10.277372150906443,
            10.91208487586039,
            11.001549252892092,
            11.070237923272702,
            11.61523740689901,
            12.108670344553532,
            13.046899485632274,
            13.329057369286694,
            13.34189044018079,
            13.454980535481313,
            13.614069244112308,
            13.664588287706907,
            13.72617095229368,
            14.042037453180173,
            14.167448273789821,
            15.109234407196796,
            15.937814491231473,
            15.984226569265193,
            16.200914791080873,
            16.836409192511564,
            18.199374082314975,
            18.61491911017477,
            19.76128712688495,
            19.908316560462826,
            21.851256430916738,
            22.16548327763828,
            22.314168459603703
        ]
    },
    "born_effective_charge": {
        "avg_abs_trace": 3.266018541666667,
        "tensors": [
            [
                [
                    3.78207,
                    0.0,
                    0.0
                ],
                [
                    0.0,
                    4.39521,
                    0.37675
                ],
                [
                    0.0,
                    0.5248,
                    3.29257
                ]
            ],
            [
                [
                    3.48246,
                    -0.0,
                    0.0
                ],
                [
                    0.0,
                    3.7263,
                    -0.16072
                ],
                [
                    0.0,
                    0.18339,
                    4.89171
                ]
            ],
            [
                [
                    3.48246,
                    0.0,
                    0.0
                ],
                [
                    0.0,
                    3.7263,
                    0.16072
                ],
                [
                    0.0,
                    -0.18339,
                    4.89171
                ]
            ],
            [
                [
                    3.78207,
                    -0.0,
                    0.0
                ],
                [
                    0.0,
                    4.39521,
                    -0.37675
                ],
                [
                    0.0,
                    -0.5248,
                    3.29257
                ]
            ],
            [
                [
                    5.48811,
                    -1e-05,
                    0.0
                ],
                [
                    0.0,
                    5.33087,
                    -0.1599
                ],
                [
                    0.0,
                    -0.11278,
                    4.80292
                ]
            ],
            [
                [
                    5.48811,
                    1e-05,
                    0.0
                ],
                [
                    0.0,
                    5.33087,
                    0.1599
                ],
                [
                    0.0,
                    0.11278,
                    4.80292
                ]
            ],
            [
                [
                    -0.88552,
                    0.0,
                    -0.0
                ],
                [
                    0.0,
                    -3.31705,
                    -0.11245
                ],
                [
                    0.0,
                    -0.27312,
                    -3.29788
                ]
            ],
            [
                [
                    -4.51496,
                    -0.0,
                    -0.0
                ],
                [
                    0.0,
                    -1.92623,
                    -0.1509
                ],
                [
                    -0.0,
                    -0.09358,
                    -1.76449
                ]
            ],
            [
                [
                    -3.08888,
                    0.0,
                    -0.0
                ],
                [
                    0.0,
                    -1.70591,
                    0.36189
                ],
                [
                    0.0,
                    0.29999,
                    -3.11233
                ]
            ],
            [
                [
                    -3.37475,
                    0.0,
                    0.0
                ],
                [
                    0.0,
                    -2.301,
                    -0.20499
                ],
                [
                    -0.0,
                    -0.16299,
                    -2.23025
                ]
            ],
            [
                [
                    -0.88853,
                    -1e-05,
                    -0.0
                ],
                [
                    0.0,
                    -4.2022,
                    0.7071
                ],
                [
                    0.0,
                    1.05178,
                    -2.58225
                ]
            ],
            [
                [
                    -3.08888,
                    -0.0,
                    -0.0
                ],
                [
                    0.0,
                    -1.70591,
                    -0.36189
                ],
                [
                    0.0,
                    -0.29999,
                    -3.11233
                ]
            ],
            [
                [
                    -4.51496,
                    0.0,
                    -0.0
                ],
                [
                    0.0,
                    -1.92623,
                    0.15089
                ],
                [
                    0.0,
                    0.09358,
                    -1.76449
                ]
            ],
            [
                [
                    -0.88552,
                    -0.0,
                    -0.0
                ],
                [
                    0.0,
                    -3.31704,
                    0.11245
                ],
                [
                    0.0,
                    0.27312,
                    -3.29788
                ]
            ],
            [
                [
                    -0.88853,
                    1e-05,
                    -0.0
                ],
                [
                    0.0,
                    -4.20219,
                    -0.70711
                ],
                [
                    0.0,
                    -1.05178,
                    -2.58225
                ]
            ],
            [
                [
                    -3.37475,
                    -0.0,
                    0.0
                ],
                [
                    0.0,
                    -2.30101,
                    0.205
                ],
                [
                    0.0,
                    0.16299,
                    -2.23025
                ]
            ]
        ]
    },
    "band_gap": 3.2909000000000006,
    "is_direct": false,
    "formula": "Sc2TiO5"
}