{
    "mp_id": "mp-7404",
    "nelements": 3,
    "nsites": 16,
    "elements": [
        "Na",
        "O",
        "Sb"
    ],
    "structure": {
        "@module": "pymatgen.core.structure",
        "@class": "Structure",
        "charge": null,
        "lattice": {
            "matrix": [
                [
                    5.74006249,
                    0.0,
                    0.00072841
                ],
                [
                    0.0,
                    6.5349195,
                    0.0
                ],
                [
                    -1.81668398,
                    0.0,
                    5.11281171
                ]
            ],
            "a": 5.740062536217364,
            "b": 6.5349195,
            "c": 5.425973116879751,
            "alpha": 90.0,
            "beta": 109.55386976524468,
            "gamma": 90.0,
            "volume": 191.79454179863149
        },
        "sites": [
            {
                "species": [
                    {
                        "element": "Na",
                        "occu": 1
                    }
                ],
                "abc": [
                    0.0,
                    0.38446128,
                    0.75
                ],
                "xyz": [
                    -1.362512985,
                    2.5124235156669603,
                    3.8346087825
                ],
                "label": "Na",
                "properties": {}
            },
            {
                "species": [
                    {
                        "element": "Na",
                        "occu": 1
                    }
                ],
                "abc": [
                    0.5,
                    0.39825428,
                    0.25
                ],
                "xyz": [
                    2.4158602499999997,
                    2.60255966033046,
                    1.2785671324999999
                ],
                "label": "Na",
                "properties": {}
            },
            {
                "species": [
                    {
                        "element": "Na",
                        "occu": 1
                    }
                ],
                "abc": [
                    0.5,
                    0.12575987,
                    0.75
                ],
                "xyz": [
                    1.5075182599999999,
                    0.8218306267804649,
                    3.8349729875
                ],
                "label": "Na",
                "properties": {}
            },
            {
                "species": [
                    {
                        "element": "Na",
                        "occu": 1
                    }
                ],
                "abc": [
                    0.5,
                    0.87424013,
                    0.25
                ],
                "xyz": [
                    2.4158602499999997,
                    5.713088873219535,
                    1.2785671324999999
                ],
                "label": "Na",
                "properties": {}
            },
            {
                "species": [
                    {
                        "element": "Na",
                        "occu": 1
                    }
                ],
                "abc": [
                    0.0,
                    0.61553872,
                    0.25
                ],
                "xyz": [
                    -0.454170995,
                    4.02249598433304,
                    1.2782029275
                ],
                "label": "Na",
                "properties": {}
            },
            {
                "species": [
                    {
                        "element": "Na",
                        "occu": 1
                    }
                ],
                "abc": [
                    0.5,
                    0.60174572,
                    0.75
                ],
                "xyz": [
                    1.5075182599999999,
                    3.93235983966954,
                    3.8349729875
                ],
                "label": "Na",
                "properties": {}
            },
            {
                "species": [
                    {
                        "element": "Sb",
                        "occu": 1
                    }
                ],
                "abc": [
                    0.0,
                    0.86736607,
                    0.75
                ],
                "xyz": [
                    -1.362512985,
                    5.668167444481365,
                    3.8346087825
                ],
                "label": "Sb",
                "properties": {}
            },
            {
                "species": [
                    {
                        "element": "Sb",
                        "occu": 1
                    }
                ],
                "abc": [
                    0.0,
                    0.13263393,
                    0.25
                ],
                "xyz": [
                    -0.454170995,
                    0.8667520555186351,
                    1.2782029275
                ],
                "label": "Sb",
                "properties": {}
            },
            {
                "species": [
                    {
                        "element": "O",
                        "occu": 1
                    }
                ],
                "abc": [
                    0.2303025,
                    0.6635113,
                    0.96165993
                ],
                "xyz": [
                    -0.42508144743569676,
                    4.33599293284035,
                    4.916953905785805
                ],
                "label": "O",
                "properties": {}
            },
            {
                "species": [
                    {
                        "element": "O",
                        "occu": 1
                    }
                ],
                "abc": [
                    0.7696975,
                    0.6635113,
                    0.53834007
                ],
                "xyz": [
                    3.4401179674356968,
                    4.33599293284035,
                    2.7529920692141943
                ],
                "label": "O",
                "properties": {}
            },
            {
                "species": [
                    {
                        "element": "O",
                        "occu": 1
                    }
                ],
                "abc": [
                    0.7696975,
                    0.3364887,
                    0.03834007
                ],
                "xyz": [
                    4.348459957435697,
                    2.1989265671596496,
                    0.19658621421419467
                ],
                "label": "O",
                "properties": {}
            },
            {
                "species": [
                    {
                        "element": "O",
                        "occu": 1
                    }
                ],
                "abc": [
                    0.2303025,
                    0.3364887,
                    0.46165993
                ],
                "xyz": [
                    0.4832605425643034,
                    2.1989265671596496,
                    2.360548050785805
                ],
                "label": "O",
                "properties": {}
            },
            {
                "species": [
                    {
                        "element": "O",
                        "occu": 1
                    }
                ],
                "abc": [
                    0.1996297,
                    0.90211308,
                    0.49926113
                ],
                "xyz": [
                    0.23888725615225548,
                    5.89523635769706,
                    2.552773564081609
                ],
                "label": "O",
                "properties": {}
            },
            {
                "species": [
                    {
                        "element": "O",
                        "occu": 1
                    }
                ],
                "abc": [
                    0.8003703,
                    0.90211308,
                    0.00073887
                ],
                "xyz": [
                    4.592833243847744,
                    5.89523635769706,
                    0.0043607009183907
                ],
                "label": "O",
                "properties": {}
            },
            {
                "species": [
                    {
                        "element": "O",
                        "occu": 1
                    }
                ],
                "abc": [
                    0.1996297,
                    0.09788692,
                    0.99926113
                ],
                "xyz": [
                    -0.6694547338477448,
                    0.63968314230294,
                    5.1091794190816096
                ],
                "label": "O",
                "properties": {}
            },
            {
                "species": [
                    {
                        "element": "O",
                        "occu": 1
                    }
                ],
                "abc": [
                    0.8003703,
                    0.09788692,
                    0.50073887
                ],
                "xyz": [
                    3.6844912538477446,
                    0.63968314230294,
                    2.5607665559183905
                ],
                "label": "O",
                "properties": {}
            }
        ]
    },
    "spacegroup": {
        "source": "spglib",
        "symbol": "P2/c",
        "number": 13,
        "point_group": "2/m",
        "crystal_system": "monoclinic",
        "hall": "-P 2yc"
    },
    "dielectric": {
        "epsilon_ionic": [
            [
                5.41425246,
                -0.0,
                0.17457615
            ],
            [
                -0.0,
                6.43907879,
                1e-08
            ],
            [
                0.17457615,
                1e-08,
                9.21461059
            ]
        ],
        "epsilon_ionic_avg": 7.02264728,
        "epsilon_ionic_eig": [
            5.4062498483211,
            9.222613201678898,
            6.43907879
        ],
        "epsilon_electronic": [
            [
                2.92642804,
                0.0,
                -0.11223248
            ],
            [
                0.0,
                3.14904987,
                0.0
            ],
            [
                -0.11223554,
                0.0,
                3.42430661
            ]
        ],
        "epsilon_electronic_avg": 3.1665948399999997,
        "epsilon_electronic_eig": [
            2.902297296225968,
            3.4484373537740316,
            3.14904987
        ]
    },
    "phonon": {
        "lowest_freq": -0.17129668603275017,
        "frequency": [
            -0.17129668603275017,
            -0.11184472055333135,
            -0.04229708946034673,
            2.6518470011917996,
            3.427419698816782,
            3.6285858297135833,
            3.870598248448983,
            4.021265825788254,
            4.35581274716404,
            4.963290155649624,
            5.517415386478295,
            5.6585425819273105,
            5.925236381067848,
            6.473935644720658,
            6.496490830509968,
            6.787445539558291,
            6.848512851842373,
            7.053849459983607,
            7.331222513039823,
            8.038331368300815,
            8.111231032345609,
            8.269068539440683,
            8.460445305373167,
            8.54807172816495,
            8.897784826810298,
            9.037511949879358,
            9.196813798191881,
            9.309294529788886,
            10.370371544221857,
            10.656537292126018,
            10.79840858297467,
            11.002608649440633,
            11.4857044292257,
            11.76605212074212,
            12.07108535859043,
            12.573666508922162,
            13.295724148962295,
            13.826895840858993,
            13.973362249062566,
            14.190227207591358,
            14.550702147767206,
            15.766755978341724,
            16.19132454102551,
            16.424258468441057,
            17.872998189592256,
            17.87520583186683,
            18.809259259559596,
            19.68038121651186
        ]
    },
    "born_effective_charge": {
        "avg_abs_trace": 1.7493985416666666,
        "tensors": [
            [
                [
                    0.71004,
                    -0.0,
                    -0.12251
                ],
                [
                    -0.0,
                    1.18116,
                    0.0
                ],
                [
                    -0.16017,
                    2e-05,
                    0.94654
                ]
            ],
            [
                [
                    1.18586,
                    2e-05,
                    0.16151
                ],
                [
                    -0.0,
                    1.26428,
                    0.0
                ],
                [
                    0.22437,
                    3e-05,
                    1.00386
                ]
            ],
            [
                [
                    1.30045,
                    -1e-05,
                    0.06176
                ],
                [
                    -0.0,
                    0.72072,
                    0.0
                ],
                [
                    0.03382,
                    1e-05,
                    1.00541
                ]
            ],
            [
                [
                    1.30045,
                    1e-05,
                    0.06176
                ],
                [
                    -0.0,
                    0.72073,
                    0.0
                ],
                [
                    0.03382,
                    -1e-05,
                    1.00541
                ]
            ],
            [
                [
                    0.71004,
                    0.0,
                    -0.12251
                ],
                [
                    -0.0,
                    1.18112,
                    0.0
                ],
                [
                    -0.16017,
                    -2e-05,
                    0.94654
                ]
            ],
            [
                [
                    1.18586,
                    -2e-05,
                    0.16151
                ],
                [
                    -0.0,
                    1.2643,
                    0.0
                ],
                [
                    0.22437,
                    -3e-05,
                    1.00386
                ]
            ],
            [
                [
                    3.10197,
                    8e-05,
                    -0.48839
                ],
                [
                    -0.0,
                    3.77506,
                    0.0
                ],
                [
                    -0.556,
                    -3e-05,
                    4.79734
                ]
            ],
            [
                [
                    3.10197,
                    -8e-05,
                    -0.48839
                ],
                [
                    -0.0,
                    3.77526,
                    0.0
                ],
                [
                    -0.556,
                    3e-05,
                    4.79734
                ]
            ],
            [
                [
                    -1.50974,
                    0.32518,
                    -0.21846
                ],
                [
                    0.28533,
                    -1.89236,
                    0.35454
                ],
                [
                    -0.13435,
                    0.24127,
                    -1.68419
                ]
            ],
            [
                [
                    -1.50971,
                    -0.32512,
                    -0.2184
                ],
                [
                    -0.28533,
                    -1.89236,
                    -0.35454
                ],
                [
                    -0.13425,
                    -0.24106,
                    -1.6844
                ]
            ],
            [
                [
                    -1.50971,
                    0.32512,
                    -0.2184
                ],
                [
                    0.28509,
                    -1.89223,
                    0.35421
                ],
                [
                    -0.13425,
                    0.24106,
                    -1.6844
                ]
            ],
            [
                [
                    -1.50974,
                    -0.32518,
                    -0.21846
                ],
                [
                    -0.28509,
                    -1.89223,
                    -0.35421
                ],
                [
                    -0.13435,
                    -0.24127,
                    -1.68419
                ]
            ],
            [
                [
                    -1.63939,
                    -0.02587,
                    0.41218
                ],
                [
                    -0.02423,
                    -1.57827,
                    0.45945
                ],
                [
                    0.36335,
                    0.54427,
                    -2.19229
                ]
            ],
            [
                [
                    -1.63946,
                    0.02589,
                    0.41232
                ],
                [
                    0.02423,
                    -1.57827,
                    -0.45945
                ],
                [
                    0.36322,
                    -0.54401,
                    -2.19228
                ]
            ],
            [
                [
                    -1.63939,
                    0.02587,
                    0.41218
                ],
                [
                    0.02437,
                    -1.57846,
                    -0.45963
                ],
                [
                    0.36335,
                    -0.54427,
                    -2.19229
                ]
            ],
            [
                [
                    -1.63946,
                    -0.02589,
                    0.41232
                ],
                [
                    -0.02437,
                    -1.57846,
                    0.45963
                ],
                [
                    0.36322,
                    0.54401,
                    -2.19228
                ]
            ]
        ]
    },
    "band_gap": 2.3400000000000003,
    "is_direct": true,
    "formula": "Na3SbO4"
}