{
    "mp_id": "mp-752849",
    "nelements": 3,
    "nsites": 22,
    "elements": [
        "O",
        "Pb",
        "Y"
    ],
    "structure": {
        "@module": "pymatgen.core.structure",
        "@class": "Structure",
        "charge": null,
        "lattice": {
            "matrix": [
                [
                    0.0,
                    5.33274786,
                    5.33274786
                ],
                [
                    5.33274786,
                    0.0,
                    5.33274786
                ],
                [
                    5.33274786,
                    5.33274786,
                    0.0
                ]
            ],
            "a": 7.541644348328099,
            "b": 7.541644348328099,
            "c": 7.541644348328099,
            "alpha": 60.00000000000001,
            "beta": 60.00000000000001,
            "gamma": 60.00000000000001,
            "volume": 303.3074975937125
        },
        "sites": [
            {
                "species": [
                    {
                        "element": "Y",
                        "occu": 1
                    }
                ],
                "abc": [
                    0.125,
                    0.625,
                    0.125
                ],
                "xyz": [
                    3.9995608949999992,
                    1.333186965,
                    3.9995608949999992
                ],
                "label": "Y",
                "properties": {}
            },
            {
                "species": [
                    {
                        "element": "Y",
                        "occu": 1
                    }
                ],
                "abc": [
                    0.125,
                    0.125,
                    0.625
                ],
                "xyz": [
                    3.9995608949999992,
                    3.9995608949999992,
                    1.333186965
                ],
                "label": "Y",
                "properties": {}
            },
            {
                "species": [
                    {
                        "element": "Y",
                        "occu": 1
                    }
                ],
                "abc": [
                    0.625,
                    0.125,
                    0.125
                ],
                "xyz": [
                    1.333186965,
                    3.9995608949999992,
                    3.9995608949999992
                ],
                "label": "Y",
                "properties": {}
            },
            {
                "species": [
                    {
                        "element": "Y",
                        "occu": 1
                    }
                ],
                "abc": [
                    0.125,
                    0.125,
                    0.125
                ],
                "xyz": [
                    1.333186965,
                    1.333186965,
                    1.333186965
                ],
                "label": "Y",
                "properties": {}
            },
            {
                "species": [
                    {
                        "element": "Pb",
                        "occu": 1
                    }
                ],
                "abc": [
                    0.625,
                    0.625,
                    0.625
                ],
                "xyz": [
                    6.665934824999999,
                    6.665934824999999,
                    6.665934824999999
                ],
                "label": "Pb",
                "properties": {}
            },
            {
                "species": [
                    {
                        "element": "Pb",
                        "occu": 1
                    }
                ],
                "abc": [
                    0.125,
                    0.625,
                    0.625
                ],
                "xyz": [
                    6.665934824999999,
                    3.9995608949999992,
                    3.9995608949999992
                ],
                "label": "Pb",
                "properties": {}
            },
            {
                "species": [
                    {
                        "element": "Pb",
                        "occu": 1
                    }
                ],
                "abc": [
                    0.625,
                    0.625,
                    0.125
                ],
                "xyz": [
                    3.9995608949999992,
                    3.9995608949999992,
                    6.665934824999999
                ],
                "label": "Pb",
                "properties": {}
            },
            {
                "species": [
                    {
                        "element": "Pb",
                        "occu": 1
                    }
                ],
                "abc": [
                    0.625,
                    0.125,
                    0.625
                ],
                "xyz": [
                    3.9995608949999992,
                    6.665934824999999,
                    3.9995608949999992
                ],
                "label": "Pb",
                "properties": {}
            },
            {
                "species": [
                    {
                        "element": "O",
                        "occu": 1
                    }
                ],
                "abc": [
                    0.27418274,
                    0.72581726,
                    0.72581726
                ],
                "xyz": [
                    7.741200880032126,
                    5.33274786,
                    5.33274786
                ],
                "label": "O",
                "properties": {}
            },
            {
                "species": [
                    {
                        "element": "O",
                        "occu": 1
                    }
                ],
                "abc": [
                    0.52418274,
                    0.97581726,
                    0.97581726
                ],
                "xyz": [
                    10.407574810032127,
                    7.99912179,
                    7.99912179
                ],
                "label": "O",
                "properties": {}
            },
            {
                "species": [
                    {
                        "element": "O",
                        "occu": 1
                    }
                ],
                "abc": [
                    0.72581726,
                    0.72581726,
                    0.27418274
                ],
                "xyz": [
                    5.33274786,
                    5.33274786,
                    7.741200880032126
                ],
                "label": "O",
                "properties": {}
            },
            {
                "species": [
                    {
                        "element": "O",
                        "occu": 1
                    }
                ],
                "abc": [
                    0.27418274,
                    0.27418274,
                    0.72581726
                ],
                "xyz": [
                    5.33274786,
                    5.33274786,
                    2.9242948399678723
                ],
                "label": "O",
                "properties": {}
            },
            {
                "species": [
                    {
                        "element": "O",
                        "occu": 1
                    }
                ],
                "abc": [
                    0.0,
                    0.0,
                    0.0
                ],
                "xyz": [
                    0.0,
                    0.0,
                    0.0
                ],
                "label": "O",
                "properties": {}
            },
            {
                "species": [
                    {
                        "element": "O",
                        "occu": 1
                    }
                ],
                "abc": [
                    0.27418274,
                    0.72581726,
                    0.27418274
                ],
                "xyz": [
                    5.33274786,
                    2.9242948399678723,
                    5.33274786
                ],
                "label": "O",
                "properties": {}
            },
            {
                "species": [
                    {
                        "element": "O",
                        "occu": 1
                    }
                ],
                "abc": [
                    0.72581726,
                    0.27418274,
                    0.72581726
                ],
                "xyz": [
                    5.33274786,
                    7.741200880032126,
                    5.33274786
                ],
                "label": "O",
                "properties": {}
            },
            {
                "species": [
                    {
                        "element": "O",
                        "occu": 1
                    }
                ],
                "abc": [
                    0.97581726,
                    0.52418274,
                    0.97581726
                ],
                "xyz": [
                    7.99912179,
                    10.407574810032127,
                    7.99912179
                ],
                "label": "O",
                "properties": {}
            },
            {
                "species": [
                    {
                        "element": "O",
                        "occu": 1
                    }
                ],
                "abc": [
                    0.52418274,
                    0.52418274,
                    0.97581726
                ],
                "xyz": [
                    7.99912179,
                    7.99912179,
                    5.5906687699678725
                ],
                "label": "O",
                "properties": {}
            },
            {
                "species": [
                    {
                        "element": "O",
                        "occu": 1
                    }
                ],
                "abc": [
                    0.97581726,
                    0.97581726,
                    0.52418274
                ],
                "xyz": [
                    7.99912179,
                    7.99912179,
                    10.407574810032127
                ],
                "label": "O",
                "properties": {}
            },
            {
                "species": [
                    {
                        "element": "O",
                        "occu": 1
                    }
                ],
                "abc": [
                    0.25,
                    0.25,
                    0.25
                ],
                "xyz": [
                    2.66637393,
                    2.66637393,
                    2.66637393
                ],
                "label": "O",
                "properties": {}
            },
            {
                "species": [
                    {
                        "element": "O",
                        "occu": 1
                    }
                ],
                "abc": [
                    0.52418274,
                    0.97581726,
                    0.52418274
                ],
                "xyz": [
                    7.99912179,
                    5.5906687699678725,
                    7.99912179
                ],
                "label": "O",
                "properties": {}
            },
            {
                "species": [
                    {
                        "element": "O",
                        "occu": 1
                    }
                ],
                "abc": [
                    0.72581726,
                    0.27418274,
                    0.27418274
                ],
                "xyz": [
                    2.9242948399678723,
                    5.33274786,
                    5.33274786
                ],
                "label": "O",
                "properties": {}
            },
            {
                "species": [
                    {
                        "element": "O",
                        "occu": 1
                    }
                ],
                "abc": [
                    0.97581726,
                    0.52418274,
                    0.52418274
                ],
                "xyz": [
                    5.5906687699678725,
                    7.99912179,
                    7.99912179
                ],
                "label": "O",
                "properties": {}
            }
        ]
    },
    "spacegroup": {
        "source": "spglib",
        "symbol": "Fd-3m",
        "number": 227,
        "point_group": "m-3m",
        "crystal_system": "cubic",
        "hall": "F 4d 2 3 -1d"
    },
    "dielectric": {
        "epsilon_ionic": [
            [
                13.83221144,
                -0.0,
                -0.0
            ],
            [
                -0.0,
                13.83211408,
                -0.0
            ],
            [
                -0.0,
                -0.0,
                13.83230798
            ]
        ],
        "epsilon_ionic_avg": 13.832211166666667,
        "epsilon_ionic_eig": [
            13.83221144,
            13.83211408,
            13.83230798
        ],
        "epsilon_electronic": [
            [
                5.64121412,
                -0.0,
                -0.0
            ],
            [
                0.0,
                5.64121412,
                0.0
            ],
            [
                -0.0,
                -0.0,
                5.64121412
            ]
        ],
        "epsilon_electronic_avg": 5.64121412,
        "epsilon_electronic_eig": [
            5.64121412,
            5.64121412,
            5.64121412
        ]
    },
    "phonon": {
        "lowest_freq": -0.01711499638725764,
        "frequency": [
            -0.01711499638725764,
            -0.01711499638725764,
            -0.01711499638725764,
            2.619547333676639,
            2.619547333676639,
            2.619547333676639,
            2.644241041128602,
            2.644241041128602,
            2.964183803608038,
            2.964183803608038,
            2.964183803608038,
            3.565349002441365,
            3.565349002441365,
            3.565349002441365,
            4.093373774062057,
            4.093373774062057,
            4.093373774062057,
            5.101831449529565,
            5.101831449529565,
            5.243750741533768,
            5.243750741533768,
            5.243750741533768,
            5.3627534538956905,
            6.6916891687827595,
            6.6916891687827595,
            6.6916891687827595,
            7.275752120048989,
            7.275752120048989,
            7.275752120048989,
            8.08543577820151,
            8.49820211329001,
            8.49820211329001,
            8.49820211329001,
            8.571884712843287,
            8.571884712843287,
            8.571884712843287,
            8.888754649142166,
            8.888754649142166,
            8.888754649142166,
            10.514788238186869,
            10.514788238186869,
            10.575853224438461,
            10.575853224438461,
            10.575853224438461,
            11.129893627201746,
            11.129893627201746,
            11.829580395909389,
            11.829580395909389,
            11.829580395909389,
            12.409515298202317,
            13.445037345338658,
            14.458103305391601,
            14.458103305391601,
            14.458103305391601,
            14.8362052481046,
            14.8362052481046,
            14.8362052481046,
            16.508127725559845,
            16.508127725559845,
            16.508127725559845,
            18.85487439918896,
            18.85487439918896,
            18.85487439918896,
            19.657022191398028,
            19.657022191398028,
            19.657022191398028
        ]
    },
    "born_effective_charge": {
        "avg_abs_trace": 3.053429696969697,
        "tensors": [
            [
                [
                    3.94649,
                    0.00232,
                    -0.00232
                ],
                [
                    0.00233,
                    3.94649,
                    0.00233
                ],
                [
                    -0.00234,
                    0.00234,
                    3.94654
                ]
            ],
            [
                [
                    3.94649,
                    -0.00232,
                    0.00232
                ],
                [
                    -0.00233,
                    3.94649,
                    0.00233
                ],
                [
                    0.00234,
                    0.00234,
                    3.94654
                ]
            ],
            [
                [
                    3.94649,
                    0.00232,
                    0.00232
                ],
                [
                    0.00233,
                    3.94649,
                    -0.00233
                ],
                [
                    0.00234,
                    -0.00234,
                    3.94654
                ]
            ],
            [
                [
                    3.94649,
                    -0.00232,
                    -0.00232
                ],
                [
                    -0.00233,
                    3.94649,
                    -0.00233
                ],
                [
                    -0.00234,
                    -0.00234,
                    3.94654
                ]
            ],
            [
                [
                    4.45045,
                    -0.27349,
                    -0.27349
                ],
                [
                    -0.27349,
                    4.45043,
                    -0.27349
                ],
                [
                    -0.27349,
                    -0.27349,
                    4.4504
                ]
            ],
            [
                [
                    4.45045,
                    0.27349,
                    0.27349
                ],
                [
                    0.27349,
                    4.45043,
                    -0.27349
                ],
                [
                    0.27349,
                    -0.27349,
                    4.4504
                ]
            ],
            [
                [
                    4.45045,
                    -0.27349,
                    0.27349
                ],
                [
                    -0.27349,
                    4.45043,
                    0.27349
                ],
                [
                    0.27349,
                    0.27349,
                    4.4504
                ]
            ],
            [
                [
                    4.45045,
                    0.27349,
                    -0.27349
                ],
                [
                    0.27349,
                    4.45043,
                    0.27349
                ],
                [
                    -0.27349,
                    0.27349,
                    4.4504
                ]
            ],
            [
                [
                    -2.16032,
                    0.0,
                    0.0
                ],
                [
                    4e-05,
                    -2.44456,
                    -0.36222
                ],
                [
                    4e-05,
                    -0.36219,
                    -2.44455
                ]
            ],
            [
                [
                    -2.16032,
                    -0.0,
                    -0.0
                ],
                [
                    4e-05,
                    -2.44456,
                    0.36222
                ],
                [
                    4e-05,
                    0.36219,
                    -2.44455
                ]
            ],
            [
                [
                    -2.44457,
                    -0.36221,
                    2e-05
                ],
                [
                    -0.36222,
                    -2.44456,
                    4e-05
                ],
                [
                    0.0,
                    0.0,
                    -2.16019
                ]
            ],
            [
                [
                    -2.44457,
                    0.36221,
                    -2e-05
                ],
                [
                    0.36222,
                    -2.44456,
                    -4e-05
                ],
                [
                    -0.0,
                    -0.0,
                    -2.16003
                ]
            ],
            [
                [
                    -2.69534,
                    -0.0,
                    0.0
                ],
                [
                    0.0,
                    -2.69533,
                    0.0
                ],
                [
                    0.0,
                    0.0,
                    -2.69544
                ]
            ],
            [
                [
                    -2.44457,
                    -2e-05,
                    0.36221
                ],
                [
                    -0.0,
                    -2.16012,
                    -0.0
                ],
                [
                    0.36219,
                    -4e-05,
                    -2.44455
                ]
            ],
            [
                [
                    -2.44457,
                    2e-05,
                    -0.36221
                ],
                [
                    -0.0,
                    -2.16016,
                    -0.0
                ],
                [
                    -0.36219,
                    4e-05,
                    -2.44455
                ]
            ],
            [
                [
                    -2.44457,
                    2e-05,
                    0.36221
                ],
                [
                    0.0,
                    -2.16016,
                    0.0
                ],
                [
                    0.36219,
                    4e-05,
                    -2.44455
                ]
            ],
            [
                [
                    -2.44457,
                    -0.36221,
                    -2e-05
                ],
                [
                    -0.36222,
                    -2.44456,
                    -4e-05
                ],
                [
                    0.0,
                    0.0,
                    -2.16003
                ]
            ],
            [
                [
                    -2.44457,
                    0.36221,
                    2e-05
                ],
                [
                    0.36222,
                    -2.44456,
                    4e-05
                ],
                [
                    -0.0,
                    -0.0,
                    -2.16019
                ]
            ],
            [
                [
                    -2.69534,
                    0.0,
                    0.0
                ],
                [
                    0.0,
                    -2.69533,
                    0.0
                ],
                [
                    0.0,
                    0.0,
                    -2.69544
                ]
            ],
            [
                [
                    -2.44457,
                    -2e-05,
                    -0.36221
                ],
                [
                    0.0,
                    -2.16012,
                    0.0
                ],
                [
                    -0.36219,
                    -4e-05,
                    -2.44455
                ]
            ],
            [
                [
                    -2.15993,
                    -0.0,
                    -0.0
                ],
                [
                    -4e-05,
                    -2.44456,
                    0.36222
                ],
                [
                    -4e-05,
                    0.36219,
                    -2.44455
                ]
            ],
            [
                [
                    -2.15993,
                    0.0,
                    0.0
                ],
                [
                    -4e-05,
                    -2.44456,
                    -0.36222
                ],
                [
                    -4e-05,
                    -0.36219,
                    -2.44455
                ]
            ]
        ]
    },
    "band_gap": 1.1035999999999997,
    "is_direct": true,
    "formula": "Y2Pb2O7"
}