{
    "mp_id": "mp-756510",
    "nelements": 3,
    "nsites": 18,
    "elements": [
        "K",
        "O",
        "Ti"
    ],
    "structure": {
        "@module": "pymatgen.core.structure",
        "@class": "Structure",
        "charge": null,
        "lattice": {
            "matrix": [
                [
                    6.43093994,
                    0.00163081,
                    -0.00189387
                ],
                [
                    2.53128225,
                    5.95571047,
                    -0.00360212
                ],
                [
                    1.69742831,
                    2.49614897,
                    9.14539294
                ]
            ],
            "a": 6.4309404256432074,
            "b": 6.4713128503342485,
            "c": 9.630692320649818,
            "alpha": 72.1245247313534,
            "beta": 79.86093043716488,
            "gamma": 66.95911505559317,
            "volume": 350.3032556318709
        },
        "sites": [
            {
                "species": [
                    {
                        "element": "K",
                        "occu": 1
                    }
                ],
                "abc": [
                    0.27616216,
                    0.03915867,
                    0.38235927
                ],
                "xyz": [
                    2.5241313604542115,
                    1.1880937669028764,
                    3.4961616989432143
                ],
                "label": "K",
                "properties": {}
            },
            {
                "species": [
                    {
                        "element": "K",
                        "occu": 1
                    }
                ],
                "abc": [
                    0.25197548,
                    0.58328873,
                    0.16332596
                ],
                "xyz": [
                    3.3741416953686407,
                    3.881995647254803,
                    1.4911017967003073
                ],
                "label": "K",
                "properties": {}
            },
            {
                "species": [
                    {
                        "element": "K",
                        "occu": 1
                    }
                ],
                "abc": [
                    0.22437229,
                    0.48769074,
                    0.56224199
                ],
                "xyz": [
                    3.6317731057383646,
                    4.308350519143553,
                    5.13974227340032
                ],
                "label": "K",
                "properties": {}
            },
            {
                "species": [
                    {
                        "element": "K",
                        "occu": 1
                    }
                ],
                "abc": [
                    0.25193452,
                    0.23224335,
                    0.97194957
                ],
                "xyz": [
                    3.857863952478593,
                    3.809715926564879,
                    8.887547035868742
                ],
                "label": "K",
                "properties": {}
            },
            {
                "species": [
                    {
                        "element": "K",
                        "occu": 1
                    }
                ],
                "abc": [
                    0.74806548,
                    0.76775665,
                    0.02805043
                ],
                "xyz": [
                    6.801786547521407,
                    4.643774323435121,
                    0.2523499141312587
                ],
                "label": "K",
                "properties": {}
            },
            {
                "species": [
                    {
                        "element": "K",
                        "occu": 1
                    }
                ],
                "abc": [
                    0.77562771,
                    0.51230926,
                    0.43775801
                ],
                "xyz": [
                    7.027877394261636,
                    4.145139730856447,
                    4.0001546765996805
                ],
                "label": "K",
                "properties": {}
            },
            {
                "species": [
                    {
                        "element": "K",
                        "occu": 1
                    }
                ],
                "abc": [
                    0.74802452,
                    0.41671127,
                    0.83667404
                ],
                "xyz": [
                    7.285508804631359,
                    4.571494602745197,
                    7.648795153299694
                ],
                "label": "K",
                "properties": {}
            },
            {
                "species": [
                    {
                        "element": "K",
                        "occu": 1
                    }
                ],
                "abc": [
                    0.72383784,
                    0.96084133,
                    0.61764073
                ],
                "xyz": [
                    8.135519139545787,
                    7.265396483097124,
                    5.643735251056786
                ],
                "label": "K",
                "properties": {}
            },
            {
                "species": [
                    {
                        "element": "Ti",
                        "occu": 1
                    }
                ],
                "abc": [
                    0.2264202,
                    0.84390552,
                    0.75265633
                ],
                "xyz": [
                    4.86983793309851,
                    6.905168512374636,
                    6.879869227252434
                ],
                "label": "Ti",
                "properties": {}
            },
            {
                "species": [
                    {
                        "element": "Ti",
                        "occu": 1
                    }
                ],
                "abc": [
                    0.7735798,
                    0.15609448,
                    0.24734367
                ],
                "xyz": [
                    5.78981256690149,
                    1.5483217376253635,
                    2.2600277227475662
                ],
                "label": "Ti",
                "properties": {}
            },
            {
                "species": [
                    {
                        "element": "O",
                        "occu": 1
                    }
                ],
                "abc": [
                    0.04834808,
                    0.14629555,
                    0.65325055
                ],
                "xyz": [
                    1.7900849047563732,
                    2.5019834729161867,
                    5.973614428916282
                ],
                "label": "O",
                "properties": {}
            },
            {
                "species": [
                    {
                        "element": "O",
                        "occu": 1
                    }
                ],
                "abc": [
                    0.0447851,
                    0.66100348,
                    0.80806737
                ],
                "xyz": [
                    3.3328330946443687,
                    5.953874915847475,
                    7.387627789629653
                ],
                "label": "O",
                "properties": {}
            },
            {
                "species": [
                    {
                        "element": "O",
                        "occu": 1
                    }
                ],
                "abc": [
                    0.62681779,
                    0.16654934,
                    0.09280206
                ],
                "xyz": [
                    4.6101357927750675,
                    1.2245896352125778,
                    0.8469242622249084
                ],
                "label": "O",
                "properties": {}
            },
            {
                "species": [
                    {
                        "element": "O",
                        "occu": 1
                    }
                ],
                "abc": [
                    0.54345217,
                    0.28978345,
                    0.37690739
                ],
                "xyz": [
                    4.868205242895644,
                    2.6675695877649677,
                    3.4448931210177154
                ],
                "label": "O",
                "properties": {}
            },
            {
                "species": [
                    {
                        "element": "O",
                        "occu": 1
                    }
                ],
                "abc": [
                    0.45654783,
                    0.71021655,
                    0.62309261
                ],
                "xyz": [
                    5.791445257104357,
                    5.785920662235032,
                    5.695003828982286
                ],
                "label": "O",
                "properties": {}
            },
            {
                "species": [
                    {
                        "element": "O",
                        "occu": 1
                    }
                ],
                "abc": [
                    0.37318221,
                    0.83345066,
                    0.90719794
                ],
                "xyz": [
                    6.049514707224934,
                    7.228900614787422,
                    8.292972687775093
                ],
                "label": "O",
                "properties": {}
            },
            {
                "species": [
                    {
                        "element": "O",
                        "occu": 1
                    }
                ],
                "abc": [
                    0.9552149,
                    0.33899652,
                    0.19193263
                ],
                "xyz": [
                    7.326817405355631,
                    2.4996153341525247,
                    1.7522691603703469
                ],
                "label": "O",
                "properties": {}
            },
            {
                "species": [
                    {
                        "element": "O",
                        "occu": 1
                    }
                ],
                "abc": [
                    0.95165192,
                    0.85370445,
                    0.34674945
                ],
                "xyz": [
                    8.869565595243627,
                    5.951506777083813,
                    3.166282521083719
                ],
                "label": "O",
                "properties": {}
            }
        ]
    },
    "spacegroup": {
        "source": "spglib",
        "symbol": "P-1",
        "number": 2,
        "point_group": "-1",
        "crystal_system": "triclinic",
        "hall": "-P 1"
    },
    "dielectric": {
        "epsilon_ionic": [
            [
                4.95902209,
                -0.32202852,
                0.10633997
            ],
            [
                -0.32202852,
                4.67589964,
                0.38014698
            ],
            [
                0.10633997,
                0.38014698,
                4.41327342
            ]
        ],
        "epsilon_ionic_avg": 4.682731716666663,
        "epsilon_ionic_eig": [
            4.055293356645838,
            5.193322738879735,
            4.7995790544744175
        ],
        "epsilon_electronic": [
            [
                2.87294048,
                -0.00894946,
                0.02584227
            ],
            [
                -0.00894888,
                2.83383985,
                -0.0123137
            ],
            [
                0.02584083,
                -0.01231311,
                2.84471564
            ]
        ],
        "epsilon_electronic_avg": 2.8504986566666672,
        "epsilon_electronic_eig": [
            2.8916847783625053,
            2.8357850604850356,
            2.8240261311524613
        ]
    },
    "phonon": {
        "lowest_freq": -0.044874780962222534,
        "frequency": [
            -0.044874780962222534,
            -0.03902116504620621,
            -0.02010442546025997,
            1.8626676589069981,
            2.1642150143437493,
            2.289742970291236,
            2.7541778247179542,
            2.7591191979285443,
            2.796200334666768,
            2.938057258524799,
            3.0344707412293572,
            3.229483551104022,
            3.2911466005369814,
            3.4821411824848187,
            3.5669624320474203,
            3.7104445985962062,
            3.817320676883502,
            4.130789129883823,
            4.1374763831953105,
            4.228355633261065,
            4.420228969122575,
            4.641087883450438,
            4.711324739393571,
            4.797817062191299,
            4.890396902842237,
            5.306493635847787,
            5.531212591260645,
            5.641751128847294,
            5.68640101785285,
            5.738212816037845,
            6.030079468493593,
            6.081540507429624,
            6.229513938495463,
            6.428173993794233,
            6.497144319211797,
            6.663290672457664,
            8.504932543216592,
            8.668474283294518,
            9.04224637354242,
            9.11963362566888,
            9.180904259874854,
            9.302174262133397,
            9.963515824533198,
            9.970270163306724,
            10.1353635753949,
            10.302141478291501,
            19.562256384848173,
            19.573377581617727,
            19.617176035800735,
            20.006340499940197,
            20.257999733250752,
            20.892258694820498,
            20.98642643090855,
            21.564844302219406
        ]
    },
    "born_effective_charge": {
        "avg_abs_trace": 1.6558753703703706,
        "tensors": [
            [
                [
                    1.30949,
                    0.04884,
                    0.08989
                ],
                [
                    0.00961,
                    0.85927,
                    -0.09133
                ],
                [
                    0.0522,
                    -0.09631,
                    1.21096
                ]
            ],
            [
                [
                    1.1385,
                    -0.1433,
                    -0.01641
                ],
                [
                    -0.10416,
                    1.19301,
                    -0.02137
                ],
                [
                    -0.05602,
                    -0.09908,
                    1.17228
                ]
            ],
            [
                [
                    1.03861,
                    0.04688,
                    0.01306
                ],
                [
                    0.10775,
                    1.35515,
                    0.11277
                ],
                [
                    -0.03055,
                    0.1079,
                    1.14414
                ]
            ],
            [
                [
                    1.12293,
                    0.0406,
                    -0.03241
                ],
                [
                    -0.0009,
                    1.22883,
                    0.00772
                ],
                [
                    0.06742,
                    0.07531,
                    1.12178
                ]
            ],
            [
                [
                    1.12287,
                    0.04065,
                    -0.03243
                ],
                [
                    -0.00101,
                    1.22891,
                    0.00775
                ],
                [
                    0.06736,
                    0.07536,
                    1.12182
                ]
            ],
            [
                [
                    1.03866,
                    0.04689,
                    0.01301
                ],
                [
                    0.10777,
                    1.35526,
                    0.11275
                ],
                [
                    -0.03055,
                    0.10791,
                    1.14419
                ]
            ],
            [
                [
                    1.13843,
                    -0.14332,
                    -0.01645
                ],
                [
                    -0.10414,
                    1.19302,
                    -0.02138
                ],
                [
                    -0.056,
                    -0.09906,
                    1.1723
                ]
            ],
            [
                [
                    1.3095,
                    0.04886,
                    0.08987
                ],
                [
                    0.00956,
                    0.85925,
                    -0.09133
                ],
                [
                    0.05211,
                    -0.09638,
                    1.21094
                ]
            ],
            [
                [
                    2.94892,
                    -0.02629,
                    0.16799
                ],
                [
                    -0.04346,
                    2.74598,
                    -0.03867
                ],
                [
                    0.17807,
                    -0.05933,
                    2.76438
                ]
            ],
            [
                [
                    2.94926,
                    -0.02592,
                    0.16789
                ],
                [
                    -0.0433,
                    2.74591,
                    -0.03884
                ],
                [
                    0.17743,
                    -0.05901,
                    2.7641
                ]
            ],
            [
                [
                    -1.38714,
                    0.39454,
                    -0.28496
                ],
                [
                    0.43397,
                    -2.56258,
                    0.73776
                ],
                [
                    -0.23223,
                    0.66256,
                    -1.677
                ]
            ],
            [
                [
                    -2.44137,
                    -0.73299,
                    0.43287
                ],
                [
                    -0.70896,
                    -1.64198,
                    0.24827
                ],
                [
                    0.44212,
                    0.30236,
                    -1.46789
                ]
            ],
            [
                [
                    -1.98951,
                    -0.16405,
                    -0.86001
                ],
                [
                    -0.2086,
                    -1.31784,
                    -0.26827
                ],
                [
                    -0.91161,
                    -0.26084,
                    -2.30429
                ]
            ],
            [
                [
                    -1.74036,
                    0.53548,
                    0.49002
                ],
                [
                    0.51431,
                    -1.86027,
                    -0.68697
                ],
                [
                    0.49093,
                    -0.63241,
                    -1.96429
                ]
            ],
            [
                [
                    -1.7407,
                    0.53579,
                    0.49021
                ],
                [
                    0.51449,
                    -1.86038,
                    -0.68677
                ],
                [
                    0.4913,
                    -0.63255,
                    -1.96429
                ]
            ],
            [
                [
                    -1.98959,
                    -0.16395,
                    -0.85995
                ],
                [
                    -0.20802,
                    -1.31786,
                    -0.26767
                ],
                [
                    -0.91161,
                    -0.26092,
                    -2.30458
                ]
            ],
            [
                [
                    -2.44142,
                    -0.73292,
                    0.43254
                ],
                [
                    -0.7086,
                    -1.6417,
                    0.24817
                ],
                [
                    0.44187,
                    0.3023,
                    -1.46772
                ]
            ],
            [
                [
                    -1.38708,
                    0.39423,
                    -0.28473
                ],
                [
                    0.43368,
                    -2.56196,
                    0.73741
                ],
                [
                    -0.23225,
                    0.66218,
                    -1.67682
                ]
            ]
        ]
    },
    "band_gap": 3.1317999999999997,
    "is_direct": false,
    "formula": "K4TiO4"
}