{
    "mp_id": "mp-753798",
    "nelements": 3,
    "nsites": 12,
    "elements": [
        "O",
        "Rb",
        "Sn"
    ],
    "structure": {
        "@module": "pymatgen.core.structure",
        "@class": "Structure",
        "charge": null,
        "lattice": {
            "matrix": [
                [
                    5.34004013,
                    -3.69413938,
                    0.0
                ],
                [
                    5.34004013,
                    3.69413938,
                    0.0
                ],
                [
                    0.0,
                    0.0,
                    5.78685148
                ]
            ],
            "a": 6.49328070769139,
            "b": 6.49328070769139,
            "c": 5.78685148,
            "alpha": 90.0,
            "beta": 90.0,
            "gamma": 69.34951302534483,
            "volume": 228.31273157596718
        },
        "sites": [
            {
                "species": [
                    {
                        "element": "Rb",
                        "occu": 1
                    }
                ],
                "abc": [
                    0.48086909,
                    0.19766744,
                    0.74312601
                ],
                "xyz": [
                    3.6234122998709495,
                    -1.046186367745977,
                    4.300359850794995
                ],
                "label": "Rb",
                "properties": {}
            },
            {
                "species": [
                    {
                        "element": "Rb",
                        "occu": 1
                    }
                ],
                "abc": [
                    0.19766744,
                    0.48086909,
                    0.24312601
                ],
                "xyz": [
                    3.6234122998709495,
                    1.046186367745977,
                    1.4069341107949949
                ],
                "label": "Rb",
                "properties": {}
            },
            {
                "species": [
                    {
                        "element": "Rb",
                        "occu": 1
                    }
                ],
                "abc": [
                    0.51913091,
                    0.80233256,
                    0.24312601
                ],
                "xyz": [
                    7.056667960129051,
                    1.046186367745977,
                    1.4069341107949949
                ],
                "label": "Rb",
                "properties": {}
            },
            {
                "species": [
                    {
                        "element": "Rb",
                        "occu": 1
                    }
                ],
                "abc": [
                    0.80233256,
                    0.51913091,
                    0.74312601
                ],
                "xyz": [
                    7.056667960129051,
                    -1.046186367745977,
                    4.300359850794995
                ],
                "label": "Rb",
                "properties": {}
            },
            {
                "species": [
                    {
                        "element": "Sn",
                        "occu": 1
                    }
                ],
                "abc": [
                    0.91236181,
                    0.08763819,
                    0.26191253
                ],
                "xyz": [
                    5.34004013,
                    -3.046644002258156,
                    1.5156489118610443
                ],
                "label": "Sn",
                "properties": {}
            },
            {
                "species": [
                    {
                        "element": "Sn",
                        "occu": 1
                    }
                ],
                "abc": [
                    0.08763819,
                    0.91236181,
                    0.76191253
                ],
                "xyz": [
                    5.34004013,
                    3.046644002258156,
                    4.409074651861045
                ],
                "label": "Sn",
                "properties": {}
            },
            {
                "species": [
                    {
                        "element": "O",
                        "occu": 1
                    }
                ],
                "abc": [
                    0.13921583,
                    0.11342548,
                    0.50521919
                ],
                "xyz": [
                    1.3491147338957705,
                    -0.09527314755898314,
                    2.9236284173759017
                ],
                "label": "O",
                "properties": {}
            },
            {
                "species": [
                    {
                        "element": "O",
                        "occu": 1
                    }
                ],
                "abc": [
                    0.11342548,
                    0.13921583,
                    0.00521919
                ],
                "xyz": [
                    1.3491147338957705,
                    0.09527314755898314,
                    0.030202677375901203
                ],
                "label": "O",
                "properties": {}
            },
            {
                "species": [
                    {
                        "element": "O",
                        "occu": 1
                    }
                ],
                "abc": [
                    0.65087042,
                    0.34912958,
                    0.30139907
                ],
                "xyz": [
                    5.34004013,
                    -1.1146727195982793,
                    1.7441516543001236
                ],
                "label": "O",
                "properties": {}
            },
            {
                "species": [
                    {
                        "element": "O",
                        "occu": 1
                    }
                ],
                "abc": [
                    0.34912958,
                    0.65087042,
                    0.80139907
                ],
                "xyz": [
                    5.34004013,
                    1.1146727195982793,
                    4.6375773943001235
                ],
                "label": "O",
                "properties": {}
            },
            {
                "species": [
                    {
                        "element": "O",
                        "occu": 1
                    }
                ],
                "abc": [
                    0.86078417,
                    0.88657452,
                    0.00521919
                ],
                "xyz": [
                    9.33096552610423,
                    0.09527314755898342,
                    0.030202677375901203
                ],
                "label": "O",
                "properties": {}
            },
            {
                "species": [
                    {
                        "element": "O",
                        "occu": 1
                    }
                ],
                "abc": [
                    0.88657452,
                    0.86078417,
                    0.50521919
                ],
                "xyz": [
                    9.33096552610423,
                    -0.09527314755898342,
                    2.9236284173759017
                ],
                "label": "O",
                "properties": {}
            }
        ]
    },
    "spacegroup": {
        "source": "spglib",
        "symbol": "Cmc2_1",
        "number": 36,
        "point_group": "mm2",
        "crystal_system": "orthorhombic",
        "hall": "C 2c -2"
    },
    "dielectric": {
        "epsilon_ionic": [
            [
                5.0115096,
                0.0,
                1.643e-05
            ],
            [
                0.0,
                4.68487426,
                2.265e-05
            ],
            [
                1.643e-05,
                2.265e-05,
                19.48328582
            ]
        ],
        "epsilon_ionic_avg": 9.726556559999997,
        "epsilon_ionic_eig": [
            5.011509599981345,
            19.483285820053315,
            4.684874259965331
        ],
        "epsilon_electronic": [
            [
                3.11723573,
                0.0,
                0.0
            ],
            [
                0.0,
                3.18204181,
                0.0
            ],
            [
                0.0,
                0.0,
                3.48409968
            ]
        ],
        "epsilon_electronic_avg": 3.26112574,
        "epsilon_electronic_eig": [
            3.11723573,
            3.18204181,
            3.48409968
        ]
    },
    "phonon": {
        "lowest_freq": -0.03903071351856162,
        "frequency": [
            -0.03903071351856162,
            -0.02377551872102743,
            -0.023083551050256466,
            1.5575573415408877,
            1.7613336483988875,
            1.931837352034407,
            2.186365268405718,
            2.3887359129054233,
            2.3964926646338323,
            2.6209283628867333,
            2.7383581045955028,
            2.8109237502543607,
            2.8654749877144328,
            2.8910330749633237,
            3.0313337850037043,
            3.4229949363646015,
            3.5166032018375675,
            3.5488580630961075,
            4.98787976358196,
            5.089277652576279,
            5.262118131503772,
            6.279067766159643,
            6.996880225763034,
            7.280590880132789,
            8.383181812641316,
            9.104505394395499,
            11.56707481474166,
            11.783251206887606,
            13.380037669914836,
            14.442062046552872,
            16.042990792045455,
            16.08427146074145,
            16.57778667080555,
            17.237548176109623,
            18.733163803616158,
            19.25718180363363
        ]
    },
    "born_effective_charge": {
        "avg_abs_trace": 1.8742530555555559,
        "tensors": [
            [
                [
                    1.29859,
                    0.11057,
                    0.01193
                ],
                [
                    0.0235,
                    1.29305,
                    0.03392
                ],
                [
                    0.02927,
                    -0.00085,
                    1.14256
                ]
            ],
            [
                [
                    1.29859,
                    -0.11057,
                    0.01193
                ],
                [
                    -0.02351,
                    1.29304,
                    -0.03392
                ],
                [
                    0.02927,
                    0.00085,
                    1.14256
                ]
            ],
            [
                [
                    1.29859,
                    0.11058,
                    -0.01192
                ],
                [
                    0.02351,
                    1.29304,
                    -0.03392
                ],
                [
                    -0.02927,
                    0.00085,
                    1.14256
                ]
            ],
            [
                [
                    1.29859,
                    -0.11058,
                    -0.01192
                ],
                [
                    -0.0235,
                    1.29305,
                    0.03392
                ],
                [
                    -0.02927,
                    -0.00085,
                    1.14256
                ]
            ],
            [
                [
                    2.45475,
                    0.0,
                    -1e-05
                ],
                [
                    -0.0,
                    2.81065,
                    0.05068
                ],
                [
                    0.0,
                    -0.07362,
                    4.13449
                ]
            ],
            [
                [
                    2.45475,
                    -0.0,
                    -1e-05
                ],
                [
                    -0.0,
                    2.81065,
                    -0.05068
                ],
                [
                    0.0,
                    0.07362,
                    4.13449
                ]
            ],
            [
                [
                    -1.79306,
                    -0.05673,
                    -0.00834
                ],
                [
                    -0.05402,
                    -1.53043,
                    0.32675
                ],
                [
                    -0.01495,
                    0.42534,
                    -2.37966
                ]
            ],
            [
                [
                    -1.79306,
                    0.05673,
                    -0.00834
                ],
                [
                    0.05403,
                    -1.53043,
                    -0.32675
                ],
                [
                    -0.01495,
                    -0.42534,
                    -2.37966
                ]
            ],
            [
                [
                    -1.4658,
                    -0.0,
                    -0.0
                ],
                [
                    -0.0,
                    -2.33588,
                    -0.06259
                ],
                [
                    0.0,
                    0.00546,
                    -1.6603
                ]
            ],
            [
                [
                    -1.4658,
                    0.0,
                    -0.0
                ],
                [
                    -0.0,
                    -2.33587,
                    0.06258
                ],
                [
                    0.0,
                    -0.00546,
                    -1.6603
                ]
            ],
            [
                [
                    -1.79306,
                    -0.05673,
                    0.00834
                ],
                [
                    -0.05403,
                    -1.53043,
                    -0.32675
                ],
                [
                    0.01495,
                    -0.42534,
                    -2.37966
                ]
            ],
            [
                [
                    -1.79306,
                    0.05673,
                    0.00834
                ],
                [
                    0.05402,
                    -1.53043,
                    0.32675
                ],
                [
                    0.01495,
                    0.42534,
                    -2.37966
                ]
            ]
        ]
    },
    "band_gap": 2.2721,
    "is_direct": true,
    "formula": "Rb2SnO3"
}