{
    "mp_id": "mp-755896",
    "nelements": 3,
    "nsites": 12,
    "elements": [
        "Cr",
        "O",
        "Zn"
    ],
    "structure": {
        "@module": "pymatgen.core.structure",
        "@class": "Structure",
        "charge": null,
        "lattice": {
            "matrix": [
                [
                    2.73657356,
                    -4.11616905,
                    0.0
                ],
                [
                    2.73657356,
                    4.11616905,
                    0.0
                ],
                [
                    0.0,
                    0.0,
                    6.18713109
                ]
            ],
            "a": 4.942841540801099,
            "b": 4.942841540801099,
            "c": 6.18713109,
            "alpha": 90.0,
            "beta": 90.0,
            "gamma": 112.76529275110772,
            "volume": 139.38615650856948
        },
        "sites": [
            {
                "species": [
                    {
                        "element": "Zn",
                        "occu": 1
                    }
                ],
                "abc": [
                    0.0,
                    0.0,
                    0.0
                ],
                "xyz": [
                    0.0,
                    0.0,
                    0.0
                ],
                "label": "Zn",
                "properties": {}
            },
            {
                "species": [
                    {
                        "element": "Zn",
                        "occu": 1
                    }
                ],
                "abc": [
                    0.0,
                    0.0,
                    0.5
                ],
                "xyz": [
                    0.0,
                    0.0,
                    3.093565545
                ],
                "label": "Zn",
                "properties": {}
            },
            {
                "species": [
                    {
                        "element": "Cr",
                        "occu": 1
                    }
                ],
                "abc": [
                    0.64105563,
                    0.35894437,
                    0.25
                ],
                "xyz": [
                    2.73657356,
                    -1.1612176370685028,
                    1.5467827725
                ],
                "label": "Cr",
                "properties": {}
            },
            {
                "species": [
                    {
                        "element": "Cr",
                        "occu": 1
                    }
                ],
                "abc": [
                    0.35894437,
                    0.64105563,
                    0.75
                ],
                "xyz": [
                    2.73657356,
                    1.1612176370685028,
                    4.6403483175
                ],
                "label": "Cr",
                "properties": {}
            },
            {
                "species": [
                    {
                        "element": "O",
                        "occu": 1
                    }
                ],
                "abc": [
                    0.21933987,
                    0.26906407,
                    0.75
                ],
                "xyz": [
                    1.3365533088038264,
                    0.20467321307601005,
                    4.6403483175
                ],
                "label": "O",
                "properties": {}
            },
            {
                "species": [
                    {
                        "element": "O",
                        "occu": 1
                    }
                ],
                "abc": [
                    0.26906407,
                    0.21933987,
                    0.25
                ],
                "xyz": [
                    1.3365533088038264,
                    -0.20467321307601005,
                    1.5467827725
                ],
                "label": "O",
                "properties": {}
            },
            {
                "species": [
                    {
                        "element": "O",
                        "occu": 1
                    }
                ],
                "abc": [
                    0.24396902,
                    0.75603098,
                    0.53712716
                ],
                "xyz": [
                    2.73657356,
                    2.1077335914343385,
                    3.323276150919405
                ],
                "label": "O",
                "properties": {}
            },
            {
                "species": [
                    {
                        "element": "O",
                        "occu": 1
                    }
                ],
                "abc": [
                    0.75603098,
                    0.24396902,
                    0.03712716
                ],
                "xyz": [
                    2.73657356,
                    -2.1077335914343385,
                    0.2297106059194044
                ],
                "label": "O",
                "properties": {}
            },
            {
                "species": [
                    {
                        "element": "O",
                        "occu": 1
                    }
                ],
                "abc": [
                    0.24396902,
                    0.75603098,
                    0.96287284
                ],
                "xyz": [
                    2.73657356,
                    2.1077335914343385,
                    5.957420484080596
                ],
                "label": "O",
                "properties": {}
            },
            {
                "species": [
                    {
                        "element": "O",
                        "occu": 1
                    }
                ],
                "abc": [
                    0.75603098,
                    0.24396902,
                    0.46287284
                ],
                "xyz": [
                    2.73657356,
                    -2.1077335914343385,
                    2.863854939080596
                ],
                "label": "O",
                "properties": {}
            },
            {
                "species": [
                    {
                        "element": "O",
                        "occu": 1
                    }
                ],
                "abc": [
                    0.78066013,
                    0.73093593,
                    0.25
                ],
                "xyz": [
                    4.136593811196174,
                    -0.20467321307600983,
                    1.5467827725
                ],
                "label": "O",
                "properties": {}
            },
            {
                "species": [
                    {
                        "element": "O",
                        "occu": 1
                    }
                ],
                "abc": [
                    0.73093593,
                    0.78066013,
                    0.75
                ],
                "xyz": [
                    4.136593811196174,
                    0.20467321307600983,
                    4.6403483175
                ],
                "label": "O",
                "properties": {}
            }
        ]
    },
    "spacegroup": {
        "source": "spglib",
        "symbol": "Cmcm",
        "number": 63,
        "point_group": "mmm",
        "crystal_system": "orthorhombic",
        "hall": "-C 2c 2"
    },
    "dielectric": {
        "epsilon_ionic": [
            [
                9.00990347,
                1.3e-07,
                -4e-08
            ],
            [
                1.3e-07,
                4.41630644,
                -8e-08
            ],
            [
                -4e-08,
                -8e-08,
                3.21801911
            ]
        ],
        "epsilon_ionic_avg": 5.548076340000001,
        "epsilon_ionic_eig": [
            9.009903470000003,
            4.416306440000003,
            3.218019109999995
        ],
        "epsilon_electronic": [
            [
                5.26827869,
                0.0,
                0.0
            ],
            [
                0.0,
                4.6399748,
                0.0
            ],
            [
                0.0,
                0.0,
                4.2335231
            ]
        ],
        "epsilon_electronic_avg": 4.71392553,
        "epsilon_electronic_eig": [
            5.26827869,
            4.6399748,
            4.2335231
        ]
    },
    "phonon": {
        "lowest_freq": -0.17129859503380135,
        "frequency": [
            -0.17129859503380135,
            -0.05212456832874467,
            -0.029349120625050008,
            3.662092701333628,
            3.7301202750602545,
            3.831334513680688,
            4.765777189001,
            4.822560235714672,
            4.854194750611925,
            4.933527323294546,
            5.064023874778965,
            6.135711060194287,
            6.485865326471275,
            6.496331732184596,
            6.781644186312013,
            7.298003788158827,
            8.503934531094211,
            9.361595784494448,
            10.4138175173938,
            10.431065217191811,
            10.863443257402817,
            11.398249590290316,
            11.47076644300336,
            11.643517298047263,
            11.672782673761077,
            11.674423627085767,
            11.782059889948018,
            11.89825300955993,
            23.33103106642782,
            24.30098191963633,
            25.012130803680083,
            25.118456388771847,
            28.00372943368073,
            28.508423207602984,
            28.79101030507424,
            29.474159512679982
        ]
    },
    "born_effective_charge": {
        "avg_abs_trace": 2.003260833333333,
        "tensors": [
            [
                [
                    3.26204,
                    0.0,
                    0.0
                ],
                [
                    -0.0,
                    2.74925,
                    -1.08751
                ],
                [
                    0.0,
                    0.79238,
                    2.34196
                ]
            ],
            [
                [
                    3.26204,
                    0.0,
                    0.0
                ],
                [
                    -0.0,
                    2.74925,
                    1.08751
                ],
                [
                    0.0,
                    -0.79238,
                    2.34196
                ]
            ],
            [
                [
                    3.68788,
                    0.00077,
                    0.0
                ],
                [
                    -0.0,
                    3.19175,
                    0.0
                ],
                [
                    0.0,
                    2e-05,
                    2.79646
                ]
            ],
            [
                [
                    3.68788,
                    -0.00077,
                    0.0
                ],
                [
                    -0.0,
                    3.19176,
                    0.0
                ],
                [
                    0.0,
                    -2e-05,
                    2.79646
                ]
            ],
            [
                [
                    -3.05603,
                    -1.31102,
                    0.0
                ],
                [
                    -1.18745,
                    -1.35082,
                    0.0
                ],
                [
                    -0.00031,
                    -0.00022,
                    -0.97275
                ]
            ],
            [
                [
                    -3.05603,
                    1.31102,
                    0.0
                ],
                [
                    1.18733,
                    -1.35143,
                    0.0
                ],
                [
                    -0.00031,
                    0.00022,
                    -0.97275
                ]
            ],
            [
                [
                    -0.41911,
                    7e-05,
                    -0.00025
                ],
                [
                    -0.0,
                    -1.61935,
                    0.94113
                ],
                [
                    0.0,
                    1.2166,
                    -1.59605
                ]
            ],
            [
                [
                    -0.41911,
                    -7e-05,
                    -0.00025
                ],
                [
                    -0.0,
                    -1.61941,
                    -0.94137
                ],
                [
                    0.0,
                    -1.2166,
                    -1.59605
                ]
            ],
            [
                [
                    -0.41911,
                    7e-05,
                    0.00025
                ],
                [
                    -0.0,
                    -1.61935,
                    -0.94113
                ],
                [
                    0.0,
                    -1.21633,
                    -1.59687
                ]
            ],
            [
                [
                    -0.41911,
                    -7e-05,
                    0.00025
                ],
                [
                    -0.0,
                    -1.61941,
                    0.94137
                ],
                [
                    0.0,
                    1.21633,
                    -1.59687
                ]
            ],
            [
                [
                    -3.05567,
                    -1.31201,
                    0.0
                ],
                [
                    -1.18733,
                    -1.35143,
                    0.0
                ],
                [
                    0.00031,
                    0.00022,
                    -0.97275
                ]
            ],
            [
                [
                    -3.05567,
                    1.31201,
                    0.0
                ],
                [
                    1.18745,
                    -1.35082,
                    0.0
                ],
                [
                    0.00031,
                    -0.00022,
                    -0.97275
                ]
            ]
        ]
    },
    "band_gap": 2.1417,
    "is_direct": true,
    "formula": "ZnCrO4"
}