{
    "mp_id": "mp-7470",
    "nelements": 3,
    "nsites": 12,
    "elements": [
        "Cu",
        "O",
        "Rb"
    ],
    "structure": {
        "@module": "pymatgen.core.structure",
        "@class": "Structure",
        "charge": null,
        "lattice": {
            "matrix": [
                [
                    -4.69858209,
                    4.69858209,
                    2.88691965
                ],
                [
                    4.69858209,
                    -4.69858209,
                    2.88691965
                ],
                [
                    4.69858209,
                    4.69858209,
                    -2.88691965
                ]
            ],
            "a": 7.244836256154701,
            "b": 7.244836256154701,
            "c": 7.244836256154701,
            "alpha": 99.13643911964053,
            "beta": 99.13643911964053,
            "gamma": 133.0336660424424,
            "volume": 254.93433194198818
        },
        "sites": [
            {
                "species": [
                    {
                        "element": "Rb",
                        "occu": 1
                    }
                ],
                "abc": [
                    0.5,
                    0.19501193,
                    0.69501193
                ],
                "xyz": [
                    1.8325591232686678,
                    4.69858209,
                    0.0
                ],
                "label": "Rb",
                "properties": {}
            },
            {
                "species": [
                    {
                        "element": "Rb",
                        "occu": 1
                    }
                ],
                "abc": [
                    0.19501193,
                    0.5,
                    0.69501193
                ],
                "xyz": [
                    4.69858209,
                    1.8325591232686678,
                    0.0
                ],
                "label": "Rb",
                "properties": {}
            },
            {
                "species": [
                    {
                        "element": "Rb",
                        "occu": 1
                    }
                ],
                "abc": [
                    0.5,
                    0.80498807,
                    0.30498807
                ],
                "xyz": [
                    2.8660229667313324,
                    2.220446049250313e-16,
                    2.88691965
                ],
                "label": "Rb",
                "properties": {}
            },
            {
                "species": [
                    {
                        "element": "Rb",
                        "occu": 1
                    }
                ],
                "abc": [
                    0.80498807,
                    0.5,
                    0.30498807
                ],
                "xyz": [
                    2.220446049250313e-16,
                    2.8660229667313324,
                    2.88691965
                ],
                "label": "Rb",
                "properties": {}
            },
            {
                "species": [
                    {
                        "element": "Cu",
                        "occu": 1
                    }
                ],
                "abc": [
                    0.13479098,
                    0.86520902,
                    0.0
                ],
                "xyz": [
                    3.4319291209569034,
                    -3.4319291209569034,
                    2.8869196499999994
                ],
                "label": "Cu",
                "properties": {}
            },
            {
                "species": [
                    {
                        "element": "Cu",
                        "occu": 1
                    }
                ],
                "abc": [
                    0.86520902,
                    0.13479098,
                    0.0
                ],
                "xyz": [
                    -3.4319291209569034,
                    3.4319291209569034,
                    2.8869196499999994
                ],
                "label": "Cu",
                "properties": {}
            },
            {
                "species": [
                    {
                        "element": "Cu",
                        "occu": 1
                    }
                ],
                "abc": [
                    0.13479098,
                    0.13479098,
                    0.26958195
                ],
                "xyz": [
                    1.2666529220572758,
                    1.2666529220572758,
                    2.8869196477820935e-08
                ],
                "label": "Cu",
                "properties": {}
            },
            {
                "species": [
                    {
                        "element": "Cu",
                        "occu": 1
                    }
                ],
                "abc": [
                    0.86520902,
                    0.86520902,
                    0.73041805
                ],
                "xyz": [
                    3.431929167942725,
                    3.431929167942725,
                    2.8869196211308026
                ],
                "label": "Cu",
                "properties": {}
            },
            {
                "species": [
                    {
                        "element": "O",
                        "occu": 1
                    }
                ],
                "abc": [
                    0.0,
                    0.27226662,
                    0.27226662
                ],
                "xyz": [
                    2.558534128873672,
                    0.0,
                    0.0
                ],
                "label": "O",
                "properties": {}
            },
            {
                "species": [
                    {
                        "element": "O",
                        "occu": 1
                    }
                ],
                "abc": [
                    0.27226662,
                    0.0,
                    0.27226662
                ],
                "xyz": [
                    0.0,
                    2.558534128873672,
                    0.0
                ],
                "label": "O",
                "properties": {}
            },
            {
                "species": [
                    {
                        "element": "O",
                        "occu": 1
                    }
                ],
                "abc": [
                    0.72773338,
                    0.0,
                    0.72773338
                ],
                "xyz": [
                    0.0,
                    6.838630051126329,
                    0.0
                ],
                "label": "O",
                "properties": {}
            },
            {
                "species": [
                    {
                        "element": "O",
                        "occu": 1
                    }
                ],
                "abc": [
                    0.0,
                    0.72773338,
                    0.72773338
                ],
                "xyz": [
                    6.838630051126329,
                    0.0,
                    0.0
                ],
                "label": "O",
                "properties": {}
            }
        ]
    },
    "spacegroup": {
        "source": "spglib",
        "symbol": "I4/mmm",
        "number": 139,
        "point_group": "4/mmm",
        "crystal_system": "tetragonal",
        "hall": "-I 4 2"
    },
    "dielectric": {
        "epsilon_ionic": [
            [
                3.17377467,
                -1e-08,
                0.0
            ],
            [
                -1e-08,
                3.17378423,
                0.0
            ],
            [
                0.0,
                0.0,
                2.8396842
            ]
        ],
        "epsilon_ionic_avg": 3.0624143666666668,
        "epsilon_ionic_eig": [
            3.1737746699895397,
            3.17378423001046,
            2.8396842
        ],
        "epsilon_electronic": [
            [
                3.72980809,
                0.0,
                0.0
            ],
            [
                0.0,
                3.72980809,
                0.0
            ],
            [
                0.0,
                -0.0,
                3.13575991
            ]
        ],
        "epsilon_electronic_avg": 3.53179203,
        "epsilon_electronic_eig": [
            3.72980809,
            3.72980809,
            3.13575991
        ]
    },
    "phonon": {
        "lowest_freq": -0.08096563928670891,
        "frequency": [
            -0.08096563928670891,
            -0.08096563928670891,
            -0.028082494715361964,
            1.5195840575110338,
            1.5195840575110338,
            1.7239840876823842,
            1.9547592695320393,
            2.2877059024760933,
            2.2877059024760933,
            2.319821733046634,
            2.815296885824773,
            2.9205319731170305,
            2.9801696642491815,
            2.999995215933738,
            2.999995215933738,
            3.2257659087520043,
            3.271847877783691,
            3.3385115872201445,
            3.3385115872201445,
            3.905505316644752,
            4.5780648674559705,
            4.79050512258922,
            4.918615263662294,
            5.63938816123835,
            5.63938816123835,
            6.729141734597028,
            6.729141734597028,
            7.948248742723489,
            15.26150577118912,
            15.26150577118912,
            15.730053369742308,
            16.536217101940917,
            16.650522468270783,
            17.916783501617672,
            17.916783501617672,
            18.056678208297427
        ]
    },
    "born_effective_charge": {
        "avg_abs_trace": 0.9914963888888888,
        "tensors": [
            [
                [
                    1.03205,
                    0.0,
                    -0.0
                ],
                [
                    3e-05,
                    1.38111,
                    0.0
                ],
                [
                    1e-05,
                    0.0,
                    1.36047
                ]
            ],
            [
                [
                    1.38111,
                    0.0001,
                    -0.0
                ],
                [
                    0.0,
                    1.03204,
                    0.0
                ],
                [
                    0.0,
                    1e-05,
                    1.36047
                ]
            ],
            [
                [
                    1.03205,
                    0.0,
                    -0.0
                ],
                [
                    -3e-05,
                    1.38111,
                    0.0
                ],
                [
                    -1e-05,
                    0.0,
                    1.36047
                ]
            ],
            [
                [
                    1.38111,
                    -0.0001,
                    -0.0
                ],
                [
                    0.0,
                    1.03207,
                    0.0
                ],
                [
                    0.0,
                    -1e-05,
                    1.36047
                ]
            ],
            [
                [
                    0.54114,
                    0.80451,
                    -0.0
                ],
                [
                    0.80438,
                    0.5411,
                    0.0
                ],
                [
                    -1e-05,
                    1e-05,
                    -0.39414
                ]
            ],
            [
                [
                    0.54111,
                    0.80427,
                    0.0
                ],
                [
                    0.80439,
                    0.54113,
                    0.0
                ],
                [
                    1e-05,
                    -1e-05,
                    -0.39414
                ]
            ],
            [
                [
                    0.54111,
                    -0.80427,
                    0.0
                ],
                [
                    -0.80438,
                    0.5411,
                    0.0
                ],
                [
                    1e-05,
                    1e-05,
                    -0.39414
                ]
            ],
            [
                [
                    0.54114,
                    -0.80451,
                    -0.0
                ],
                [
                    -0.80439,
                    0.54113,
                    -0.0
                ],
                [
                    -1e-05,
                    -1e-05,
                    -0.39414
                ]
            ],
            [
                [
                    -1.88757,
                    0.0,
                    0.0
                ],
                [
                    -4e-05,
                    -1.60784,
                    0.0
                ],
                [
                    -1e-05,
                    0.0,
                    -0.96633
                ]
            ],
            [
                [
                    -1.60784,
                    -0.00021,
                    -0.0
                ],
                [
                    0.0,
                    -1.88748,
                    0.0
                ],
                [
                    0.0,
                    -1e-05,
                    -0.96633
                ]
            ],
            [
                [
                    -1.60784,
                    0.00021,
                    -0.0
                ],
                [
                    0.0,
                    -1.88763,
                    -0.0
                ],
                [
                    0.0,
                    1e-05,
                    -0.96633
                ]
            ],
            [
                [
                    -1.88758,
                    0.0,
                    -0.0
                ],
                [
                    4e-05,
                    -1.60784,
                    -0.0
                ],
                [
                    1e-05,
                    0.0,
                    -0.96633
                ]
            ]
        ]
    },
    "band_gap": 1.5743999999999998,
    "is_direct": false,
    "formula": "RbCuO"
}