{
    "mp_id": "mp-768342",
    "nelements": 3,
    "nsites": 28,
    "elements": [
        "Nb",
        "O",
        "Sr"
    ],
    "structure": {
        "@module": "pymatgen.core.structure",
        "@class": "Structure",
        "charge": null,
        "lattice": {
            "matrix": [
                [
                    5.14392704,
                    0.0,
                    0.0
                ],
                [
                    0.0,
                    12.50462658,
                    0.0
                ],
                [
                    0.0,
                    0.0,
                    5.94383106
                ]
            ],
            "a": 5.14392704,
            "b": 12.50462658,
            "c": 5.94383106,
            "alpha": 90.0,
            "beta": 90.0,
            "gamma": 90.0,
            "volume": 382.32437237105603
        },
        "sites": [
            {
                "species": [
                    {
                        "element": "Sr",
                        "occu": 1
                    }
                ],
                "abc": [
                    0.30375946,
                    0.00388449,
                    0.25
                ],
                "xyz": [
                    1.5625164999497985,
                    0.0485740969037442,
                    1.485957765
                ],
                "label": "Sr",
                "properties": {}
            },
            {
                "species": [
                    {
                        "element": "Sr",
                        "occu": 1
                    }
                ],
                "abc": [
                    0.30375946,
                    0.49611551,
                    0.75
                ],
                "xyz": [
                    1.5625164999497985,
                    6.203739193096256,
                    4.457873295
                ],
                "label": "Sr",
                "properties": {}
            },
            {
                "species": [
                    {
                        "element": "Sr",
                        "occu": 1
                    }
                ],
                "abc": [
                    0.69624054,
                    0.50388449,
                    0.25
                ],
                "xyz": [
                    3.581410540050202,
                    6.300887386903744,
                    1.485957765
                ],
                "label": "Sr",
                "properties": {}
            },
            {
                "species": [
                    {
                        "element": "Sr",
                        "occu": 1
                    }
                ],
                "abc": [
                    0.69624054,
                    0.99611551,
                    0.75
                ],
                "xyz": [
                    3.581410540050202,
                    12.456052483096256,
                    4.457873295
                ],
                "label": "Sr",
                "properties": {}
            },
            {
                "species": [
                    {
                        "element": "Nb",
                        "occu": 1
                    }
                ],
                "abc": [
                    0.15471341,
                    0.25,
                    0.0
                ],
                "xyz": [
                    0.7958344931496064,
                    3.126156645,
                    0.0
                ],
                "label": "Nb",
                "properties": {}
            },
            {
                "species": [
                    {
                        "element": "Nb",
                        "occu": 1
                    }
                ],
                "abc": [
                    0.15471341,
                    0.25,
                    0.5
                ],
                "xyz": [
                    0.7958344931496064,
                    3.126156645,
                    2.97191553
                ],
                "label": "Nb",
                "properties": {}
            },
            {
                "species": [
                    {
                        "element": "Nb",
                        "occu": 1
                    }
                ],
                "abc": [
                    0.34280234,
                    0.74696991,
                    0.25
                ],
                "xyz": [
                    1.7633502261012737,
                    9.340579791046208,
                    1.485957765
                ],
                "label": "Nb",
                "properties": {}
            },
            {
                "species": [
                    {
                        "element": "Nb",
                        "occu": 1
                    }
                ],
                "abc": [
                    0.34280234,
                    0.75303009,
                    0.75
                ],
                "xyz": [
                    1.7633502261012737,
                    9.416360078953792,
                    4.457873295
                ],
                "label": "Nb",
                "properties": {}
            },
            {
                "species": [
                    {
                        "element": "Nb",
                        "occu": 1
                    }
                ],
                "abc": [
                    0.65719766,
                    0.24696991,
                    0.25
                ],
                "xyz": [
                    3.3805768138987267,
                    3.0882665010462076,
                    1.485957765
                ],
                "label": "Nb",
                "properties": {}
            },
            {
                "species": [
                    {
                        "element": "Nb",
                        "occu": 1
                    }
                ],
                "abc": [
                    0.65719766,
                    0.25303009,
                    0.75
                ],
                "xyz": [
                    3.3805768138987267,
                    3.164046788953792,
                    4.457873295
                ],
                "label": "Nb",
                "properties": {}
            },
            {
                "species": [
                    {
                        "element": "Nb",
                        "occu": 1
                    }
                ],
                "abc": [
                    0.84528659,
                    0.75,
                    0.0
                ],
                "xyz": [
                    4.348092546850394,
                    9.378469935,
                    0.0
                ],
                "label": "Nb",
                "properties": {}
            },
            {
                "species": [
                    {
                        "element": "Nb",
                        "occu": 1
                    }
                ],
                "abc": [
                    0.84528659,
                    0.75,
                    0.5
                ],
                "xyz": [
                    4.348092546850394,
                    9.378469935,
                    2.97191553
                ],
                "label": "Nb",
                "properties": {}
            },
            {
                "species": [
                    {
                        "element": "O",
                        "occu": 1
                    }
                ],
                "abc": [
                    0.01128405,
                    0.64448386,
                    0.25
                ],
                "xyz": [
                    0.058044329915712005,
                    8.059030006136998,
                    1.485957765
                ],
                "label": "O",
                "properties": {}
            },
            {
                "species": [
                    {
                        "element": "O",
                        "occu": 1
                    }
                ],
                "abc": [
                    0.01128405,
                    0.85551614,
                    0.75
                ],
                "xyz": [
                    0.058044329915712005,
                    10.697909863863002,
                    4.457873295
                ],
                "label": "O",
                "properties": {}
            },
            {
                "species": [
                    {
                        "element": "O",
                        "occu": 1
                    }
                ],
                "abc": [
                    0.01208996,
                    0.85240704,
                    0.25
                ],
                "xyz": [
                    0.0621898721565184,
                    10.659031729363123,
                    1.485957765
                ],
                "label": "O",
                "properties": {}
            },
            {
                "species": [
                    {
                        "element": "O",
                        "occu": 1
                    }
                ],
                "abc": [
                    0.01208996,
                    0.64759296,
                    0.75
                ],
                "xyz": [
                    0.0621898721565184,
                    8.097908140636877,
                    4.457873295
                ],
                "label": "O",
                "properties": {}
            },
            {
                "species": [
                    {
                        "element": "O",
                        "occu": 1
                    }
                ],
                "abc": [
                    0.49075497,
                    0.14270826,
                    0.50479762
                ],
                "xyz": [
                    2.524407760197389,
                    1.784513501181551,
                    3.0004317727700767
                ],
                "label": "O",
                "properties": {}
            },
            {
                "species": [
                    {
                        "element": "O",
                        "occu": 1
                    }
                ],
                "abc": [
                    0.49075497,
                    0.14270826,
                    0.99520238
                ],
                "xyz": [
                    2.524407760197389,
                    1.784513501181551,
                    5.915314817229923
                ],
                "label": "O",
                "properties": {}
            },
            {
                "species": [
                    {
                        "element": "O",
                        "occu": 1
                    }
                ],
                "abc": [
                    0.49075497,
                    0.35729174,
                    0.00479762
                ],
                "xyz": [
                    2.524407760197389,
                    4.467799788818449,
                    0.028516242770077197
                ],
                "label": "O",
                "properties": {}
            },
            {
                "species": [
                    {
                        "element": "O",
                        "occu": 1
                    }
                ],
                "abc": [
                    0.49075497,
                    0.35729174,
                    0.49520238
                ],
                "xyz": [
                    2.524407760197389,
                    4.467799788818449,
                    2.943399287229923
                ],
                "label": "O",
                "properties": {}
            },
            {
                "species": [
                    {
                        "element": "O",
                        "occu": 1
                    }
                ],
                "abc": [
                    0.50924503,
                    0.64270826,
                    0.50479762
                ],
                "xyz": [
                    2.6195192798026112,
                    8.036826791181552,
                    3.0004317727700767
                ],
                "label": "O",
                "properties": {}
            },
            {
                "species": [
                    {
                        "element": "O",
                        "occu": 1
                    }
                ],
                "abc": [
                    0.50924503,
                    0.85729174,
                    0.00479762
                ],
                "xyz": [
                    2.6195192798026112,
                    10.720113078818448,
                    0.028516242770077197
                ],
                "label": "O",
                "properties": {}
            },
            {
                "species": [
                    {
                        "element": "O",
                        "occu": 1
                    }
                ],
                "abc": [
                    0.50924503,
                    0.85729174,
                    0.49520238
                ],
                "xyz": [
                    2.6195192798026112,
                    10.720113078818448,
                    2.943399287229923
                ],
                "label": "O",
                "properties": {}
            },
            {
                "species": [
                    {
                        "element": "O",
                        "occu": 1
                    }
                ],
                "abc": [
                    0.50924503,
                    0.64270826,
                    0.99520238
                ],
                "xyz": [
                    2.6195192798026112,
                    8.036826791181552,
                    5.915314817229923
                ],
                "label": "O",
                "properties": {}
            },
            {
                "species": [
                    {
                        "element": "O",
                        "occu": 1
                    }
                ],
                "abc": [
                    0.98791004,
                    0.14759296,
                    0.75
                ],
                "xyz": [
                    5.081737167843482,
                    1.8455948506368767,
                    4.457873295
                ],
                "label": "O",
                "properties": {}
            },
            {
                "species": [
                    {
                        "element": "O",
                        "occu": 1
                    }
                ],
                "abc": [
                    0.98791004,
                    0.35240704,
                    0.25
                ],
                "xyz": [
                    5.081737167843482,
                    4.406718439363123,
                    1.485957765
                ],
                "label": "O",
                "properties": {}
            },
            {
                "species": [
                    {
                        "element": "O",
                        "occu": 1
                    }
                ],
                "abc": [
                    0.98871595,
                    0.14448386,
                    0.25
                ],
                "xyz": [
                    5.085882710084288,
                    1.8067167161369988,
                    1.485957765
                ],
                "label": "O",
                "properties": {}
            },
            {
                "species": [
                    {
                        "element": "O",
                        "occu": 1
                    }
                ],
                "abc": [
                    0.98871595,
                    0.35551614,
                    0.75
                ],
                "xyz": [
                    5.085882710084288,
                    4.445596573863001,
                    4.457873295
                ],
                "label": "O",
                "properties": {}
            }
        ]
    },
    "spacegroup": {
        "source": "spglib",
        "symbol": "Pbcm",
        "number": 57,
        "point_group": "mmm",
        "crystal_system": "orthorhombic",
        "hall": "-P 2c 2b"
    },
    "dielectric": {
        "epsilon_ionic": [
            [
                3.06388511,
                4e-08,
                -5.8e-07
            ],
            [
                4e-08,
                3.9761973,
                8e-08
            ],
            [
                -5.8e-07,
                8e-08,
                3.92231585
            ]
        ],
        "epsilon_ionic_avg": 3.6541327533333336,
        "epsilon_ionic_eig": [
            3.0638851099996067,
            3.9223158500002717,
            3.9761973000001207
        ],
        "epsilon_electronic": [
            [
                11.44537207,
                0.0,
                0.0
            ],
            [
                0.0,
                4.43028492,
                0.0
            ],
            [
                -0.0,
                0.0,
                11.37886614
            ]
        ],
        "epsilon_electronic_avg": 9.084841043333332,
        "epsilon_electronic_eig": [
            11.44537207,
            4.43028492,
            11.37886614
        ]
    },
    "phonon": {
        "lowest_freq": -0.0943479075331745,
        "frequency": [
            -0.0943479075331745,
            -0.037682628306067834,
            -0.01012493702456698,
            1.6428299720955626,
            1.9293565652632554,
            2.6857740889786053,
            3.135111531206624,
            3.280060512187614,
            3.8693741783448212,
            3.9516538114974162,
            4.257320426871689,
            4.357429311088254,
            4.533641933194015,
            4.562322588565967,
            4.835116996796185,
            5.126945693095194,
            6.470151244356137,
            6.5235776934244925,
            6.694766869679558,
            6.776413580708076,
            6.942823025633452,
            7.023737744774059,
            7.288665085180525,
            7.3052403746356935,
            7.441548457795449,
            7.456396058945955,
            7.692083673683946,
            7.707409970273445,
            7.942049924448837,
            7.949640486493927,
            9.524338677568606,
            9.550446965353407,
            9.950740860263664,
            9.994074464745463,
            10.337777631902085,
            10.355816661576648,
            12.049392226523528,
            12.122943854157604,
            12.14028420433812,
            12.18310191920516,
            12.417439155417831,
            12.441881645267577,
            12.521543199151024,
            12.550012040138448,
            12.778164285210735,
            12.810706171293408,
            12.905853956875214,
            12.914815968035585,
            12.956070901957718,
            12.962911960261998,
            13.049146013043032,
            13.218294519707868,
            13.234618216599197,
            13.311531496663573,
            13.519204822642378,
            13.658733791509295,
            13.663049229726143,
            13.663530864670285,
            13.724043307720383,
            13.80612346274291,
            13.872632442734663,
            13.881741072716949,
            13.88424740300238,
            13.95560591040224,
            13.961364469309633,
            14.034216684946811,
            14.110116356059073,
            14.13735236800843,
            14.232017747873309,
            14.413546577675305,
            14.943706834443516,
            15.124377943592242,
            15.152994282653522,
            15.240245574823597,
            15.72953177911274,
            16.035864689337146,
            16.063572916664704,
            16.320229038295164,
            16.65626910293281,
            17.236372041177834,
            18.50861510843617,
            18.83948415825752,
            19.073120434170935,
            20.403804629344712
        ]
    },
    "born_effective_charge": {
        "avg_abs_trace": 1.9679709523809523,
        "tensors": [
            [
                [
                    2.01411,
                    -0.01254,
                    -0.0
                ],
                [
                    -0.02842,
                    4.38373,
                    0.0
                ],
                [
                    -0.0003,
                    0.00011,
                    1.96486
                ]
            ],
            [
                [
                    2.01411,
                    0.01254,
                    -0.0
                ],
                [
                    0.02811,
                    4.38322,
                    0.0
                ],
                [
                    -0.0003,
                    -0.00011,
                    1.96486
                ]
            ],
            [
                [
                    2.01435,
                    0.0127,
                    -0.0
                ],
                [
                    0.02842,
                    4.38373,
                    0.0
                ],
                [
                    0.0003,
                    0.00011,
                    1.96486
                ]
            ],
            [
                [
                    2.01435,
                    -0.0127,
                    -0.0
                ],
                [
                    -0.02811,
                    4.38322,
                    0.0
                ],
                [
                    0.0003,
                    -0.00011,
                    1.96486
                ]
            ],
            [
                [
                    2.31634,
                    0.0,
                    0.0
                ],
                [
                    0.00013,
                    1.20294,
                    0.13332
                ],
                [
                    -0.00357,
                    0.24164,
                    2.52998
                ]
            ],
            [
                [
                    2.31634,
                    0.0,
                    0.0
                ],
                [
                    0.00013,
                    1.20294,
                    -0.13332
                ],
                [
                    -0.00357,
                    -0.24164,
                    2.52998
                ]
            ],
            [
                [
                    2.62705,
                    0.07769,
                    0.0
                ],
                [
                    0.02703,
                    1.17456,
                    0.0
                ],
                [
                    0.0015,
                    -0.00023,
                    2.44922
                ]
            ],
            [
                [
                    2.62705,
                    -0.07769,
                    0.0
                ],
                [
                    -0.02665,
                    1.17462,
                    0.0
                ],
                [
                    0.0015,
                    0.00023,
                    2.44922
                ]
            ],
            [
                [
                    2.6308,
                    -0.07787,
                    0.0
                ],
                [
                    -0.02703,
                    1.17456,
                    0.0
                ],
                [
                    -0.0015,
                    -0.00023,
                    2.44922
                ]
            ],
            [
                [
                    2.6308,
                    0.07787,
                    0.0
                ],
                [
                    0.02665,
                    1.17462,
                    0.0
                ],
                [
                    -0.0015,
                    0.00023,
                    2.44922
                ]
            ],
            [
                [
                    2.31461,
                    0.0,
                    0.0
                ],
                [
                    -0.00013,
                    1.20294,
                    0.13332
                ],
                [
                    0.00357,
                    0.24164,
                    2.52998
                ]
            ],
            [
                [
                    2.31461,
                    0.0,
                    0.0
                ],
                [
                    -0.00013,
                    1.20294,
                    -0.13332
                ],
                [
                    0.00357,
                    -0.24164,
                    2.52998
                ]
            ],
            [
                [
                    -1.88178,
                    -0.22215,
                    0.0
                ],
                [
                    -0.25724,
                    -1.58617,
                    0.0
                ],
                [
                    -0.00118,
                    0.00011,
                    -1.75398
                ]
            ],
            [
                [
                    -1.88178,
                    0.22215,
                    0.0
                ],
                [
                    0.25743,
                    -1.5856,
                    0.0
                ],
                [
                    -0.00118,
                    -0.00011,
                    -1.75398
                ]
            ],
            [
                [
                    -1.85626,
                    -0.38131,
                    0.0
                ],
                [
                    -0.27451,
                    -1.56697,
                    0.0
                ],
                [
                    -0.00039,
                    1e-05,
                    -1.63775
                ]
            ],
            [
                [
                    -1.85626,
                    0.38131,
                    0.0
                ],
                [
                    0.27463,
                    -1.56667,
                    0.0
                ],
                [
                    -0.00039,
                    -1e-05,
                    -1.63775
                ]
            ],
            [
                [
                    -1.60955,
                    0.05316,
                    -0.06099
                ],
                [
                    0.01953,
                    -1.80413,
                    0.04443
                ],
                [
                    -0.0898,
                    0.06742,
                    -1.77626
                ]
            ],
            [
                [
                    -1.60955,
                    0.05316,
                    0.06099
                ],
                [
                    0.01953,
                    -1.80413,
                    -0.04443
                ],
                [
                    0.09285,
                    -0.06615,
                    -1.77608
                ]
            ],
            [
                [
                    -1.60955,
                    -0.05316,
                    -0.06099
                ],
                [
                    -0.01942,
                    -1.80417,
                    -0.04443
                ],
                [
                    -0.0898,
                    -0.06742,
                    -1.77626
                ]
            ],
            [
                [
                    -1.60955,
                    -0.05316,
                    0.06099
                ],
                [
                    -0.01942,
                    -1.80417,
                    0.04443
                ],
                [
                    0.09285,
                    0.06615,
                    -1.77608
                ]
            ],
            [
                [
                    -1.60881,
                    -0.05302,
                    0.06085
                ],
                [
                    -0.01953,
                    -1.80413,
                    0.04443
                ],
                [
                    0.0898,
                    0.06742,
                    -1.77626
                ]
            ],
            [
                [
                    -1.60881,
                    0.05302,
                    0.06085
                ],
                [
                    0.01942,
                    -1.80417,
                    -0.04443
                ],
                [
                    0.0898,
                    -0.06742,
                    -1.77626
                ]
            ],
            [
                [
                    -1.60881,
                    0.05302,
                    -0.06085
                ],
                [
                    0.01942,
                    -1.80417,
                    0.04443
                ],
                [
                    -0.09285,
                    0.06615,
                    -1.77608
                ]
            ],
            [
                [
                    -1.60881,
                    -0.05302,
                    -0.06085
                ],
                [
                    -0.01953,
                    -1.80413,
                    -0.04443
                ],
                [
                    -0.09285,
                    -0.06615,
                    -1.77608
                ]
            ],
            [
                [
                    -1.85866,
                    -0.38132,
                    0.0
                ],
                [
                    -0.27463,
                    -1.56667,
                    0.0
                ],
                [
                    0.00039,
                    -1e-05,
                    -1.63775
                ]
            ],
            [
                [
                    -1.85866,
                    0.38132,
                    0.0
                ],
                [
                    0.27451,
                    -1.56697,
                    0.0
                ],
                [
                    0.00039,
                    1e-05,
                    -1.63775
                ]
            ],
            [
                [
                    -1.88382,
                    0.22213,
                    -0.0
                ],
                [
                    0.25724,
                    -1.58617,
                    0.0
                ],
                [
                    0.00118,
                    0.00011,
                    -1.75398
                ]
            ],
            [
                [
                    -1.88382,
                    -0.22213,
                    -0.0
                ],
                [
                    -0.25743,
                    -1.5856,
                    0.0
                ],
                [
                    0.00118,
                    -0.00011,
                    -1.75398
                ]
            ]
        ]
    },
    "band_gap": 1.2129999999999992,
    "is_direct": false,
    "formula": "SrNb2O4"
}