{
    "mp_id": "mp-769271",
    "nelements": 3,
    "nsites": 30,
    "elements": [
        "O",
        "Sr",
        "Ta"
    ],
    "structure": {
        "@module": "pymatgen.core.structure",
        "@class": "Structure",
        "charge": null,
        "lattice": {
            "matrix": [
                [
                    5.87357597,
                    3.4e-07,
                    0.0
                ],
                [
                    -2.93678778,
                    5.08666593,
                    0.0
                ],
                [
                    0.0,
                    0.0,
                    15.70974189
                ]
            ],
            "a": 5.87357597000001,
            "b": 5.873575805944799,
            "c": 15.70974189,
            "alpha": 90.0,
            "beta": 90.0,
            "gamma": 119.99999529820441,
            "volume": 469.35869809222595
        },
        "sites": [
            {
                "species": [
                    {
                        "element": "Sr",
                        "occu": 1
                    }
                ],
                "abc": [
                    0.0,
                    0.0,
                    0.25
                ],
                "xyz": [
                    0.0,
                    0.0,
                    3.9274354725
                ],
                "label": "Sr",
                "properties": {}
            },
            {
                "species": [
                    {
                        "element": "Sr",
                        "occu": 1
                    }
                ],
                "abc": [
                    0.0,
                    0.0,
                    0.5
                ],
                "xyz": [
                    0.0,
                    0.0,
                    7.854870945
                ],
                "label": "Sr",
                "properties": {}
            },
            {
                "species": [
                    {
                        "element": "Sr",
                        "occu": 1
                    }
                ],
                "abc": [
                    0.0,
                    0.0,
                    0.0
                ],
                "xyz": [
                    0.0,
                    0.0,
                    0.0
                ],
                "label": "Sr",
                "properties": {}
            },
            {
                "species": [
                    {
                        "element": "Sr",
                        "occu": 1
                    }
                ],
                "abc": [
                    0.333333,
                    0.666667,
                    0.36277379
                ],
                "xyz": [
                    -2.800121249979526e-06,
                    3.39111242888853,
                    5.699082605357063
                ],
                "label": "Sr",
                "properties": {}
            },
            {
                "species": [
                    {
                        "element": "Sr",
                        "occu": 1
                    }
                ],
                "abc": [
                    0.333333,
                    0.666667,
                    0.13722621
                ],
                "xyz": [
                    -2.800121249979526e-06,
                    3.39111242888853,
                    2.1557883396429367
                ],
                "label": "Sr",
                "properties": {}
            },
            {
                "species": [
                    {
                        "element": "Sr",
                        "occu": 1
                    }
                ],
                "abc": [
                    0.666667,
                    0.333333,
                    0.86277379
                ],
                "xyz": [
                    2.93679099012125,
                    1.69555384111147,
                    13.553953550357063
                ],
                "label": "Sr",
                "properties": {}
            },
            {
                "species": [
                    {
                        "element": "Sr",
                        "occu": 1
                    }
                ],
                "abc": [
                    0.666667,
                    0.333333,
                    0.63722621
                ],
                "xyz": [
                    2.93679099012125,
                    1.69555384111147,
                    10.010659284642937
                ],
                "label": "Sr",
                "properties": {}
            },
            {
                "species": [
                    {
                        "element": "Sr",
                        "occu": 1
                    }
                ],
                "abc": [
                    0.0,
                    0.0,
                    0.75
                ],
                "xyz": [
                    0.0,
                    0.0,
                    11.7823064175
                ],
                "label": "Sr",
                "properties": {}
            },
            {
                "species": [
                    {
                        "element": "Ta",
                        "occu": 1
                    }
                ],
                "abc": [
                    0.333333,
                    0.666667,
                    0.84458435
                ],
                "xyz": [
                    -2.800121249979526e-06,
                    3.39111242888853,
                    13.268202142833422
                ],
                "label": "Ta",
                "properties": {}
            },
            {
                "species": [
                    {
                        "element": "Ta",
                        "occu": 1
                    }
                ],
                "abc": [
                    0.333333,
                    0.666667,
                    0.65541565
                ],
                "xyz": [
                    -2.800121249979526e-06,
                    3.39111242888853,
                    10.296410692166578
                ],
                "label": "Ta",
                "properties": {}
            },
            {
                "species": [
                    {
                        "element": "Ta",
                        "occu": 1
                    }
                ],
                "abc": [
                    0.666667,
                    0.333333,
                    0.34458435
                ],
                "xyz": [
                    2.93679099012125,
                    1.69555384111147,
                    5.413331197833421
                ],
                "label": "Ta",
                "properties": {}
            },
            {
                "species": [
                    {
                        "element": "Ta",
                        "occu": 1
                    }
                ],
                "abc": [
                    0.666667,
                    0.333333,
                    0.15541565
                ],
                "xyz": [
                    2.93679099012125,
                    1.69555384111147,
                    2.4415397471665785
                ],
                "label": "Ta",
                "properties": {}
            },
            {
                "species": [
                    {
                        "element": "O",
                        "occu": 1
                    }
                ],
                "abc": [
                    0.55295453,
                    0.96102524,
                    0.75
                ],
                "xyz": [
                    0.425493258807077,
                    4.888414534182613,
                    11.7823064175
                ],
                "label": "O",
                "properties": {}
            },
            {
                "species": [
                    {
                        "element": "O",
                        "occu": 1
                    }
                ],
                "abc": [
                    0.65153921,
                    0.72994284,
                    0.60229515
                ],
                "xyz": [
                    1.6831778347582884,
                    3.7129755965987723,
                    9.461901348098834
                ],
                "label": "O",
                "properties": {}
            },
            {
                "species": [
                    {
                        "element": "O",
                        "occu": 1
                    }
                ],
                "abc": [
                    0.65153921,
                    0.72994284,
                    0.89770485
                ],
                "xyz": [
                    1.6831778347582884,
                    3.7129755965987723,
                    14.102711486901166
                ],
                "label": "O",
                "properties": {}
            },
            {
                "species": [
                    {
                        "element": "O",
                        "occu": 1
                    }
                ],
                "abc": [
                    0.27005716,
                    0.92159637,
                    0.60229515
                ],
                "xyz": [
                    -1.1203317120059133,
                    4.687852948310109,
                    9.461901348098834
                ],
                "label": "O",
                "properties": {}
            },
            {
                "species": [
                    {
                        "element": "O",
                        "occu": 1
                    }
                ],
                "abc": [
                    0.27005716,
                    0.92159637,
                    0.89770485
                ],
                "xyz": [
                    -1.1203317120059133,
                    4.687852948310109,
                    14.102711486901166
                ],
                "label": "O",
                "properties": {}
            },
            {
                "species": [
                    {
                        "element": "O",
                        "occu": 1
                    }
                ],
                "abc": [
                    0.40806971,
                    0.44704547,
                    0.75
                ],
                "xyz": [
                    1.083950769340512,
                    2.2739711001535383,
                    11.7823064175
                ],
                "label": "O",
                "properties": {}
            },
            {
                "species": [
                    {
                        "element": "O",
                        "occu": 1
                    }
                ],
                "abc": [
                    0.03897476,
                    0.59193029,
                    0.75
                ],
                "xyz": [
                    -1.5094524285113389,
                    3.0109516523294375,
                    11.7823064175
                ],
                "label": "O",
                "properties": {}
            },
            {
                "species": [
                    {
                        "element": "O",
                        "occu": 1
                    }
                ],
                "abc": [
                    0.92159637,
                    0.65153921,
                    0.10229515
                ],
                "xyz": [
                    3.4996339027523753,
                    3.314162614908881,
                    1.6070304030988336
                ],
                "label": "O",
                "properties": {}
            },
            {
                "species": [
                    {
                        "element": "O",
                        "occu": 1
                    }
                ],
                "abc": [
                    0.92159637,
                    0.65153921,
                    0.39770485
                ],
                "xyz": [
                    3.4996339027523753,
                    3.314162614908881,
                    6.247840541901167
                ],
                "label": "O",
                "properties": {}
            },
            {
                "species": [
                    {
                        "element": "O",
                        "occu": 1
                    }
                ],
                "abc": [
                    0.07840363,
                    0.34846079,
                    0.60229515
                ],
                "xyz": [
                    -0.5628457127523752,
                    1.7725036550911188,
                    9.461901348098834
                ],
                "label": "O",
                "properties": {}
            },
            {
                "species": [
                    {
                        "element": "O",
                        "occu": 1
                    }
                ],
                "abc": [
                    0.07840363,
                    0.34846079,
                    0.89770485
                ],
                "xyz": [
                    -0.5628457127523752,
                    1.7725036550911188,
                    14.102711486901166
                ],
                "label": "O",
                "properties": {}
            },
            {
                "species": [
                    {
                        "element": "O",
                        "occu": 1
                    }
                ],
                "abc": [
                    0.96102524,
                    0.40806971,
                    0.25
                ],
                "xyz": [
                    4.446240618511339,
                    2.0757146176705614,
                    3.9274354725
                ],
                "label": "O",
                "properties": {}
            },
            {
                "species": [
                    {
                        "element": "O",
                        "occu": 1
                    }
                ],
                "abc": [
                    0.59193029,
                    0.55295453,
                    0.25
                ],
                "xyz": [
                    1.8528374206594875,
                    2.812695169846462,
                    3.9274354725
                ],
                "label": "O",
                "properties": {}
            },
            {
                "species": [
                    {
                        "element": "O",
                        "occu": 1
                    }
                ],
                "abc": [
                    0.72994284,
                    0.07840363,
                    0.10229515
                ],
                "xyz": [
                    4.057119902005914,
                    0.3988133216898915,
                    1.6070304030988336
                ],
                "label": "O",
                "properties": {}
            },
            {
                "species": [
                    {
                        "element": "O",
                        "occu": 1
                    }
                ],
                "abc": [
                    0.72994284,
                    0.07840363,
                    0.39770485
                ],
                "xyz": [
                    4.057119902005914,
                    0.3988133216898915,
                    6.247840541901167
                ],
                "label": "O",
                "properties": {}
            },
            {
                "species": [
                    {
                        "element": "O",
                        "occu": 1
                    }
                ],
                "abc": [
                    0.34846079,
                    0.27005716,
                    0.10229515
                ],
                "xyz": [
                    1.2536103552417115,
                    1.3736906734012275,
                    1.6070304030988336
                ],
                "label": "O",
                "properties": {}
            },
            {
                "species": [
                    {
                        "element": "O",
                        "occu": 1
                    }
                ],
                "abc": [
                    0.34846079,
                    0.27005716,
                    0.39770485
                ],
                "xyz": [
                    1.2536103552417115,
                    1.3736906734012275,
                    6.247840541901167
                ],
                "label": "O",
                "properties": {}
            },
            {
                "species": [
                    {
                        "element": "O",
                        "occu": 1
                    }
                ],
                "abc": [
                    0.44704547,
                    0.03897476,
                    0.25
                ],
                "xyz": [
                    2.511294931192923,
                    0.1982517358173866,
                    3.9274354725
                ],
                "label": "O",
                "properties": {}
            }
        ]
    },
    "spacegroup": {
        "source": "spglib",
        "symbol": "P6_3/m",
        "number": 176,
        "point_group": "6/m",
        "crystal_system": "hexagonal",
        "hall": "-P 6c"
    },
    "dielectric": {
        "epsilon_ionic": [
            [
                11.60240909,
                6.37e-06,
                -0.0
            ],
            [
                6.37e-06,
                11.60163085,
                1e-08
            ],
            [
                -0.0,
                1e-08,
                74.86276576
            ]
        ],
        "epsilon_ionic_avg": 32.68893523333333,
        "epsilon_ionic_eig": [
            11.602409142135823,
            11.601630797864178,
            74.86276576
        ],
        "epsilon_electronic": [
            [
                3.79795306,
                -1.69e-06,
                0.0
            ],
            [
                1.69e-06,
                3.79795302,
                0.0
            ],
            [
                -0.0,
                0.0,
                3.40080294
            ]
        ],
        "epsilon_electronic_avg": 3.6655696733333336,
        "epsilon_electronic_eig": [
            3.7979530400000003,
            3.7979530400000003,
            3.40080294
        ]
    },
    "phonon": {
        "lowest_freq": -0.05692805714182459,
        "frequency": [
            -0.05692805714182459,
            -0.039433408395407384,
            -0.039433408178484605,
            0.5842529757918627,
            1.2404138942408671,
            1.2404139001518004,
            1.3839678146002192,
            1.3839678216639713,
            1.5209044268870027,
            1.5209044333147608,
            1.5928770026901737,
            1.8262532126470699,
            2.7424609606512167,
            2.8623220887220104,
            2.8623220929912736,
            2.94792128544692,
            3.0662255473971713,
            3.066225555367887,
            3.6772150504700227,
            3.7367851121433904,
            3.736785121953968,
            3.8871474332128786,
            4.1447476334081745,
            4.144747651098043,
            4.531398975601421,
            4.938497110425019,
            4.938497112899457,
            5.100834509640494,
            5.100834533597371,
            5.1549439753258985,
            5.1549439753258985,
            5.26808560345136,
            5.268085626647655,
            5.433417319911101,
            5.433417319911101,
            5.484310339021353,
            5.563715859606788,
            5.5637158815705385,
            5.793833607229123,
            5.861396318498189,
            5.8613963393464745,
            5.92673342848074,
            5.926733449099192,
            6.229020196066269,
            7.143264314102702,
            7.260870174577342,
            7.283078770146351,
            8.273366393784286,
            9.332326714450096,
            9.53551945131587,
            9.906558914090455,
            10.029913731731806,
            10.029913780466051,
            10.045508542604159,
            10.045508591262749,
            10.136138761909873,
            10.136138773965751,
            10.426733300776517,
            10.426733312496397,
            10.790199877183278,
            10.790199888508376,
            10.949684402849124,
            10.960483024685816,
            10.960483035834965,
            11.026910906261689,
            11.262431719852682,
            13.410504699662011,
            13.410504699662011,
            13.429986921469684,
            13.429986921469684,
            13.595781241366709,
            13.595781250354795,
            13.604350766914289,
            13.604350775896714,
            15.312237825311728,
            16.309810699563872,
            16.3408989930616,
            17.69728586117748,
            18.524915036696765,
            18.524915102662018,
            18.56052473835186,
            18.560524804190553,
            18.793315452759774,
            18.793315517782926,
            18.8298474724049,
            18.8298475373019,
            21.75007511990187,
            22.83153466439436,
            22.954328349370606,
            23.063042061551002
        ]
    },
    "born_effective_charge": {
        "avg_abs_trace": 2.6755087777777775,
        "tensors": [
            [
                [
                    2.79397,
                    0.01118,
                    0.0
                ],
                [
                    -0.01084,
                    2.79415,
                    0.0
                ],
                [
                    -0.0,
                    -0.0,
                    1.71054
                ]
            ],
            [
                [
                    2.61929,
                    0.26167,
                    0.0002
                ],
                [
                    -0.26163,
                    2.61934,
                    0.00034
                ],
                [
                    -0.0,
                    -0.0,
                    3.64531
                ]
            ],
            [
                [
                    2.61929,
                    0.26167,
                    -0.0002
                ],
                [
                    -0.26163,
                    2.61934,
                    -0.00034
                ],
                [
                    -0.0,
                    -0.0,
                    3.64531
                ]
            ],
            [
                [
                    2.81245,
                    -0.10612,
                    7e-05
                ],
                [
                    0.10598,
                    2.81228,
                    8e-05
                ],
                [
                    -0.0,
                    -0.0,
                    1.90044
                ]
            ],
            [
                [
                    2.81245,
                    -0.10612,
                    -7e-05
                ],
                [
                    0.10598,
                    2.81228,
                    -8e-05
                ],
                [
                    -0.0,
                    -0.0,
                    1.90051
                ]
            ],
            [
                [
                    2.81227,
                    -0.1061,
                    -6e-05
                ],
                [
                    0.10622,
                    2.81226,
                    0.0001
                ],
                [
                    -0.0,
                    -0.0,
                    1.90044
                ]
            ],
            [
                [
                    2.81227,
                    -0.1061,
                    6e-05
                ],
                [
                    0.10622,
                    2.81226,
                    -0.0001
                ],
                [
                    -0.0,
                    -0.0,
                    1.90051
                ]
            ],
            [
                [
                    2.79399,
                    0.01108,
                    0.0
                ],
                [
                    -0.01118,
                    2.79409,
                    0.0
                ],
                [
                    -0.0,
                    -0.0,
                    1.71054
                ]
            ],
            [
                [
                    5.07446,
                    -0.00987,
                    -0.00018
                ],
                [
                    0.00976,
                    5.07425,
                    -0.00044
                ],
                [
                    -0.0,
                    -0.0,
                    4.33447
                ]
            ],
            [
                [
                    5.07446,
                    -0.00987,
                    0.00018
                ],
                [
                    0.00976,
                    5.07425,
                    0.00044
                ],
                [
                    -0.0,
                    -0.0,
                    4.33414
                ]
            ],
            [
                [
                    5.07455,
                    -0.00987,
                    0.00024
                ],
                [
                    0.0095,
                    5.07428,
                    0.00035
                ],
                [
                    -0.0,
                    -0.0,
                    4.33447
                ]
            ],
            [
                [
                    5.07455,
                    -0.00987,
                    -0.00024
                ],
                [
                    0.0095,
                    5.07428,
                    -0.00035
                ],
                [
                    -0.0,
                    -0.0,
                    4.33414
                ]
            ],
            [
                [
                    -1.72016,
                    -0.33513,
                    0.0
                ],
                [
                    -0.34082,
                    -2.82932,
                    0.0
                ],
                [
                    -5e-05,
                    8e-05,
                    -2.2231
                ]
            ],
            [
                [
                    -3.16476,
                    -0.25109,
                    0.81086
                ],
                [
                    -0.23437,
                    -1.62266,
                    0.31477
                ],
                [
                    0.88291,
                    0.34487,
                    -1.85935
                ]
            ],
            [
                [
                    -3.16476,
                    -0.25109,
                    -0.81086
                ],
                [
                    -0.23437,
                    -1.62266,
                    -0.31477
                ],
                [
                    -0.88303,
                    -0.34477,
                    -1.85936
                ]
            ],
            [
                [
                    -2.21847,
                    0.78118,
                    -0.67818
                ],
                [
                    0.79676,
                    -2.56907,
                    0.54456
                ],
                [
                    -0.74012,
                    0.59219,
                    -1.85935
                ]
            ],
            [
                [
                    -2.21847,
                    0.78118,
                    0.67818
                ],
                [
                    0.79676,
                    -2.56907,
                    -0.54456
                ],
                [
                    0.7401,
                    -0.59234,
                    -1.85936
                ]
            ],
            [
                [
                    -2.25957,
                    0.65154,
                    0.0
                ],
                [
                    0.64655,
                    -2.29033,
                    0.0
                ],
                [
                    9e-05,
                    0.0,
                    -2.2231
                ]
            ],
            [
                [
                    -2.8447,
                    -0.30863,
                    0.0
                ],
                [
                    -0.31351,
                    -1.70467,
                    0.0
                ],
                [
                    -4e-05,
                    -8e-05,
                    -2.2231
                ]
            ],
            [
                [
                    -1.79793,
                    -0.55409,
                    0.13272
                ],
                [
                    -0.53817,
                    -2.98985,
                    0.85996
                ],
                [
                    0.14279,
                    0.93706,
                    -1.85935
                ]
            ],
            [
                [
                    -1.79793,
                    -0.55409,
                    -0.13272
                ],
                [
                    -0.53817,
                    -2.98985,
                    -0.85996
                ],
                [
                    -0.14293,
                    -0.93711,
                    -1.85936
                ]
            ],
            [
                [
                    -1.79793,
                    -0.55433,
                    -0.13253
                ],
                [
                    -0.53799,
                    -2.98948,
                    -0.86008
                ],
                [
                    -0.14279,
                    -0.93706,
                    -1.85935
                ]
            ],
            [
                [
                    -1.79793,
                    -0.55433,
                    0.13253
                ],
                [
                    -0.53799,
                    -2.98948,
                    0.86008
                ],
                [
                    0.14293,
                    0.93711,
                    -1.85936
                ]
            ],
            [
                [
                    -2.84476,
                    -0.30875,
                    0.0
                ],
                [
                    -0.31303,
                    -1.70448,
                    0.0
                ],
                [
                    4e-05,
                    8e-05,
                    -2.2231
                ]
            ],
            [
                [
                    -2.25928,
                    0.65146,
                    0.0
                ],
                [
                    0.64626,
                    -2.29032,
                    0.0
                ],
                [
                    -9e-05,
                    -0.0,
                    -2.2231
                ]
            ],
            [
                [
                    -2.21898,
                    0.78119,
                    0.67842
                ],
                [
                    0.79724,
                    -2.56866,
                    -0.5449
                ],
                [
                    0.74012,
                    -0.59219,
                    -1.85935
                ]
            ],
            [
                [
                    -2.21898,
                    0.78119,
                    -0.67842
                ],
                [
                    0.79724,
                    -2.56866,
                    0.5449
                ],
                [
                    -0.7401,
                    0.59234,
                    -1.85936
                ]
            ],
            [
                [
                    -3.16454,
                    -0.25116,
                    -0.81109
                ],
                [
                    -0.2348,
                    -1.6228,
                    -0.31474
                ],
                [
                    -0.88291,
                    -0.34487,
                    -1.85935
                ]
            ],
            [
                [
                    -3.16454,
                    -0.25116,
                    0.81109
                ],
                [
                    -0.2348,
                    -1.6228,
                    0.31474
                ],
                [
                    0.88303,
                    0.34477,
                    -1.85936
                ]
            ],
            [
                [
                    -1.7203,
                    -0.33557,
                    0.0
                ],
                [
                    -0.34044,
                    -2.8289,
                    0.0
                ],
                [
                    5e-05,
                    -8e-05,
                    -2.2231
                ]
            ]
        ]
    },
    "band_gap": 4.3997,
    "is_direct": false,
    "formula": "Sr4Ta2O9"
}