{
    "mp_id": "mp-755663",
    "nelements": 3,
    "nsites": 22,
    "elements": [
        "O",
        "Pb",
        "Ta"
    ],
    "structure": {
        "@module": "pymatgen.core.structure",
        "@class": "Structure",
        "charge": null,
        "lattice": {
            "matrix": [
                [
                    1.99842536,
                    -13.52292552,
                    0.0
                ],
                [
                    1.99842536,
                    13.52292552,
                    0.0
                ],
                [
                    0.0,
                    0.0,
                    5.73374599
                ]
            ],
            "a": 13.669792190774459,
            "b": 13.669792190774459,
            "c": 5.73374599,
            "alpha": 90.0,
            "beta": 90.0,
            "gamma": 163.18728321876415,
            "volume": 309.9038941072129
        },
        "sites": [
            {
                "species": [
                    {
                        "element": "Ta",
                        "occu": 1
                    }
                ],
                "abc": [
                    0.83984589,
                    0.16015411,
                    0.74094557
                ],
                "xyz": [
                    1.9984253599999997,
                    -9.191421317496225,
                    4.248393690795765
                ],
                "label": "Ta",
                "properties": {}
            },
            {
                "species": [
                    {
                        "element": "Ta",
                        "occu": 1
                    }
                ],
                "abc": [
                    0.94598402,
                    0.05401598,
                    0.24627637
                ],
                "xyz": [
                    1.99842536,
                    -12.06201737114038,
                    1.4120861489192562
                ],
                "label": "Ta",
                "properties": {}
            },
            {
                "species": [
                    {
                        "element": "Ta",
                        "occu": 1
                    }
                ],
                "abc": [
                    0.16015411,
                    0.83984589,
                    0.24094557
                ],
                "xyz": [
                    1.9984253599999997,
                    9.191421317496225,
                    1.3815206957957642
                ],
                "label": "Ta",
                "properties": {}
            },
            {
                "species": [
                    {
                        "element": "Ta",
                        "occu": 1
                    }
                ],
                "abc": [
                    0.05401598,
                    0.94598402,
                    0.74627637
                ],
                "xyz": [
                    1.99842536,
                    12.06201737114038,
                    4.2789591439192565
                ],
                "label": "Ta",
                "properties": {}
            },
            {
                "species": [
                    {
                        "element": "Pb",
                        "occu": 1
                    }
                ],
                "abc": [
                    0.71430387,
                    0.28569613,
                    0.7421299
                ],
                "xyz": [
                    1.9984253599999997,
                    -5.796030545315523,
                    4.255184338184101
                ],
                "label": "Pb",
                "properties": {}
            },
            {
                "species": [
                    {
                        "element": "Pb",
                        "occu": 1
                    }
                ],
                "abc": [
                    0.55851542,
                    0.44148458,
                    0.26265734
                ],
                "xyz": [
                    1.99842536,
                    -1.5825993328630368,
                    1.5060104699690666
                ],
                "label": "Pb",
                "properties": {}
            },
            {
                "species": [
                    {
                        "element": "Pb",
                        "occu": 1
                    }
                ],
                "abc": [
                    0.28569613,
                    0.71430387,
                    0.2421299
                ],
                "xyz": [
                    1.9984253599999997,
                    5.796030545315523,
                    1.388311343184101
                ],
                "label": "Pb",
                "properties": {}
            },
            {
                "species": [
                    {
                        "element": "Pb",
                        "occu": 1
                    }
                ],
                "abc": [
                    0.44148458,
                    0.55851542,
                    0.76265734
                ],
                "xyz": [
                    1.99842536,
                    1.5825993328630368,
                    4.372883464969067
                ],
                "label": "Pb",
                "properties": {}
            },
            {
                "species": [
                    {
                        "element": "O",
                        "occu": 1
                    }
                ],
                "abc": [
                    0.90021103,
                    0.09978897,
                    0.97449848
                ],
                "xyz": [
                    1.99842536,
                    -10.82404790194497,
                    5.587526751961095
                ],
                "label": "O",
                "properties": {}
            },
            {
                "species": [
                    {
                        "element": "O",
                        "occu": 1
                    }
                ],
                "abc": [
                    0.99998233,
                    1.767e-05,
                    0.4842331
                ],
                "xyz": [
                    1.99842536,
                    -13.522447619812123,
                    2.776469595350269
                ],
                "label": "O",
                "properties": {}
            },
            {
                "species": [
                    {
                        "element": "O",
                        "occu": 1
                    }
                ],
                "abc": [
                    0.79072981,
                    0.20927019,
                    0.97665263
                ],
                "xyz": [
                    1.99842536,
                    -7.863035134147501,
                    5.599878100885454
                ],
                "label": "O",
                "properties": {}
            },
            {
                "species": [
                    {
                        "element": "O",
                        "occu": 1
                    }
                ],
                "abc": [
                    0.89778437,
                    0.10221563,
                    0.49209923
                ],
                "xyz": [
                    1.99842536,
                    -10.758416817060246,
                    2.821571986694588
                ],
                "label": "O",
                "properties": {}
            },
            {
                "species": [
                    {
                        "element": "O",
                        "occu": 1
                    }
                ],
                "abc": [
                    0.78976274,
                    0.21023726,
                    0.5087729
                ],
                "xyz": [
                    1.99842536,
                    -7.836879902982249,
                    2.917174575195671
                ],
                "label": "O",
                "properties": {}
            },
            {
                "species": [
                    {
                        "element": "O",
                        "occu": 1
                    }
                ],
                "abc": [
                    0.65040245,
                    0.34959755,
                    0.24212465
                ],
                "xyz": [
                    1.9984253599999997,
                    -4.067762258751048,
                    1.3882812410176535
                ],
                "label": "O",
                "properties": {}
            },
            {
                "species": [
                    {
                        "element": "O",
                        "occu": 1
                    }
                ],
                "abc": [
                    0.55042201,
                    0.44957799,
                    0.72594883
                ],
                "xyz": [
                    1.9984253599999997,
                    -1.363706171597391,
                    4.162406192957691
                ],
                "label": "O",
                "properties": {}
            },
            {
                "species": [
                    {
                        "element": "O",
                        "occu": 1
                    }
                ],
                "abc": [
                    0.21023726,
                    0.78976274,
                    0.0087729
                ],
                "xyz": [
                    1.99842536,
                    7.836879902982249,
                    0.050301580195671
                ],
                "label": "O",
                "properties": {}
            },
            {
                "species": [
                    {
                        "element": "O",
                        "occu": 1
                    }
                ],
                "abc": [
                    0.44957799,
                    0.55042201,
                    0.22594883
                ],
                "xyz": [
                    1.9984253599999997,
                    1.363706171597391,
                    1.2955331979576916
                ],
                "label": "O",
                "properties": {}
            },
            {
                "species": [
                    {
                        "element": "O",
                        "occu": 1
                    }
                ],
                "abc": [
                    0.34959755,
                    0.65040245,
                    0.74212465
                ],
                "xyz": [
                    1.9984253599999997,
                    4.067762258751048,
                    4.2551542360176535
                ],
                "label": "O",
                "properties": {}
            },
            {
                "species": [
                    {
                        "element": "O",
                        "occu": 1
                    }
                ],
                "abc": [
                    0.09978897,
                    0.90021103,
                    0.47449848
                ],
                "xyz": [
                    1.99842536,
                    10.82404790194497,
                    2.720653756961095
                ],
                "label": "O",
                "properties": {}
            },
            {
                "species": [
                    {
                        "element": "O",
                        "occu": 1
                    }
                ],
                "abc": [
                    0.10221563,
                    0.89778437,
                    0.99209923
                ],
                "xyz": [
                    1.99842536,
                    10.758416817060246,
                    5.6884449816945875
                ],
                "label": "O",
                "properties": {}
            },
            {
                "species": [
                    {
                        "element": "O",
                        "occu": 1
                    }
                ],
                "abc": [
                    1.767e-05,
                    0.99998233,
                    0.9842331
                ],
                "xyz": [
                    1.99842536,
                    13.522447619812123,
                    5.643342590350269
                ],
                "label": "O",
                "properties": {}
            },
            {
                "species": [
                    {
                        "element": "O",
                        "occu": 1
                    }
                ],
                "abc": [
                    0.20927019,
                    0.79072981,
                    0.47665263
                ],
                "xyz": [
                    1.99842536,
                    7.863035134147501,
                    2.7330051058854536
                ],
                "label": "O",
                "properties": {}
            }
        ]
    },
    "spacegroup": {
        "source": "spglib",
        "symbol": "Cmc2_1",
        "number": 36,
        "point_group": "mm2",
        "crystal_system": "orthorhombic",
        "hall": "C 2c -2"
    },
    "dielectric": {
        "epsilon_ionic": [
            [
                92.65004752,
                0.0,
                -2.782e-05
            ],
            [
                0.0,
                24.38001254,
                8.99e-06
            ],
            [
                -2.782e-05,
                8.99e-06,
                84.88545143
            ]
        ],
        "epsilon_ionic_avg": 67.30517049666669,
        "epsilon_ionic_eig": [
            92.65004752009966,
            84.88545142990174,
            24.380012539998663
        ],
        "epsilon_electronic": [
            [
                5.73674737,
                0.0,
                0.0
            ],
            [
                0.0,
                5.63782558,
                0.0
            ],
            [
                0.0,
                0.0,
                5.87833759
            ]
        ],
        "epsilon_electronic_avg": 5.75097018,
        "epsilon_electronic_eig": [
            5.73674737,
            5.63782558,
            5.87833759
        ]
    },
    "phonon": {
        "lowest_freq": -0.07614767249664166,
        "frequency": [
            -0.07614767249664166,
            -0.04689172993021769,
            -0.0257790065015228,
            1.0983857845723235,
            1.1934076689740265,
            1.236116090275628,
            1.2395298572341358,
            1.6955597267082134,
            1.7138867911841378,
            1.87271817317132,
            1.897759827043138,
            1.9774589036386738,
            2.3957092503776307,
            2.4343579771774886,
            2.481873365951904,
            2.5311631457280406,
            2.667822853465025,
            2.7254963751094134,
            2.8791046934073536,
            3.1340577580689692,
            3.844155337079593,
            4.168427786561771,
            4.728644441670432,
            5.4336652715969604,
            5.583512982013182,
            5.694942695876274,
            5.803873842329262,
            6.262518103831134,
            6.308944526960302,
            6.8127917271729075,
            7.2485062136691445,
            7.422649709952594,
            7.43607298675266,
            7.495719298642135,
            7.716519383570824,
            8.133648084710222,
            8.210423424250138,
            8.379137579306509,
            8.537095229725864,
            8.774760790898744,
            8.78572698184089,
            8.900173521672311,
            8.912547005833812,
            9.09350427855634,
            9.604305017916639,
            10.002185251258377,
            10.133070449949939,
            10.687653099441741,
            11.771221979448626,
            12.498172302707788,
            12.702284156612965,
            13.02011222316877,
            15.706578025340162,
            16.57297877139262,
            16.752641171250016,
            16.941385468267782,
            17.262719140236115,
            17.488585822400445,
            17.50877074769483,
            17.527873591261486,
            18.196730585143598,
            18.56024946474256,
            22.354380508559505,
            22.63208287956153,
            24.177246605370268,
            24.793462740649133
        ]
    },
    "born_effective_charge": {
        "avg_abs_trace": 3.916601060606061,
        "tensors": [
            [
                [
                    7.09312,
                    0.0,
                    -0.0
                ],
                [
                    0.0,
                    7.99448,
                    0.0497
                ],
                [
                    0.0,
                    0.0053,
                    6.23811
                ]
            ],
            [
                [
                    7.59817,
                    0.0,
                    -0.0
                ],
                [
                    0.0,
                    6.40231,
                    -0.0128
                ],
                [
                    -0.0,
                    0.02254,
                    8.48783
                ]
            ],
            [
                [
                    7.09312,
                    -0.0,
                    -0.0
                ],
                [
                    0.0,
                    7.99449,
                    -0.0497
                ],
                [
                    0.0,
                    -0.0053,
                    6.23811
                ]
            ],
            [
                [
                    7.59817,
                    -0.0,
                    -0.0
                ],
                [
                    0.0,
                    6.4023,
                    0.01281
                ],
                [
                    0.0,
                    -0.02254,
                    8.48783
                ]
            ],
            [
                [
                    3.69235,
                    0.0,
                    -0.0
                ],
                [
                    0.0,
                    2.80746,
                    0.03235
                ],
                [
                    0.0,
                    0.00632,
                    3.73842
                ]
            ],
            [
                [
                    3.77613,
                    -0.0,
                    -0.0
                ],
                [
                    0.0,
                    3.38591,
                    0.08613
                ],
                [
                    0.0,
                    0.05362,
                    3.40963
                ]
            ],
            [
                [
                    3.69235,
                    -0.0,
                    -0.0
                ],
                [
                    0.0,
                    2.80746,
                    -0.03234
                ],
                [
                    -0.0,
                    -0.00632,
                    3.73842
                ]
            ],
            [
                [
                    3.77613,
                    0.0,
                    -0.0
                ],
                [
                    0.0,
                    3.38591,
                    -0.08613
                ],
                [
                    -0.0,
                    -0.05362,
                    3.40963
                ]
            ],
            [
                [
                    -2.32522,
                    -0.0,
                    -0.0
                ],
                [
                    0.0,
                    -3.49379,
                    1.70135
                ],
                [
                    0.0,
                    1.78394,
                    -3.88169
                ]
            ],
            [
                [
                    -2.18032,
                    0.0,
                    0.0
                ],
                [
                    0.0,
                    -3.56317,
                    1.38205
                ],
                [
                    0.0,
                    1.70028,
                    -3.861
                ]
            ],
            [
                [
                    -2.16582,
                    0.0,
                    -0.0
                ],
                [
                    0.0,
                    -3.01842,
                    -1.18991
                ],
                [
                    0.0,
                    -0.85211,
                    -3.30481
                ]
            ],
            [
                [
                    -1.84714,
                    -0.0,
                    -0.0
                ],
                [
                    0.0,
                    -3.57941,
                    -1.96577
                ],
                [
                    0.0,
                    -2.04582,
                    -4.01073
                ]
            ],
            [
                [
                    -2.15781,
                    -0.0,
                    -0.0
                ],
                [
                    0.0,
                    -3.10228,
                    1.14116
                ],
                [
                    0.0,
                    0.82659,
                    -3.29374
                ]
            ],
            [
                [
                    -5.59006,
                    -1e-05,
                    1e-05
                ],
                [
                    0.0,
                    -2.36643,
                    -0.03593
                ],
                [
                    0.0,
                    -0.07013,
                    -1.19839
                ]
            ],
            [
                [
                    -5.8934,
                    0.0,
                    -0.0
                ],
                [
                    0.0,
                    -1.46664,
                    -0.08513
                ],
                [
                    -0.0,
                    -0.06888,
                    -2.32363
                ]
            ],
            [
                [
                    -2.15781,
                    0.0,
                    -0.0
                ],
                [
                    0.0,
                    -3.10228,
                    -1.14116
                ],
                [
                    0.0,
                    -0.82659,
                    -3.29374
                ]
            ],
            [
                [
                    -5.8934,
                    -0.0,
                    -0.0
                ],
                [
                    0.0,
                    -1.46666,
                    0.08512
                ],
                [
                    0.0,
                    0.06888,
                    -2.32363
                ]
            ],
            [
                [
                    -5.59006,
                    1e-05,
                    1e-05
                ],
                [
                    0.0,
                    -2.36644,
                    0.03595
                ],
                [
                    0.0,
                    0.07013,
                    -1.19839
                ]
            ],
            [
                [
                    -2.32522,
                    0.0,
                    -0.0
                ],
                [
                    0.0,
                    -3.4938,
                    -1.70137
                ],
                [
                    -0.0,
                    -1.78394,
                    -3.88169
                ]
            ],
            [
                [
                    -1.84714,
                    0.0,
                    -0.0
                ],
                [
                    0.0,
                    -3.5794,
                    1.96576
                ],
                [
                    0.0,
                    2.04582,
                    -4.01073
                ]
            ],
            [
                [
                    -2.18032,
                    -0.0,
                    0.0
                ],
                [
                    0.0,
                    -3.56317,
                    -1.38205
                ],
                [
                    0.0,
                    -1.70028,
                    -3.861
                ]
            ],
            [
                [
                    -2.16582,
                    -0.0,
                    -0.0
                ],
                [
                    0.0,
                    -3.01842,
                    1.1899
                ],
                [
                    0.0,
                    0.85211,
                    -3.30481
                ]
            ]
        ]
    },
    "band_gap": 2.5045,
    "is_direct": false,
    "formula": "Ta2Pb2O7"
}