{
    "mp_id": "mp-778152",
    "nelements": 3,
    "nsites": 22,
    "elements": [
        "O",
        "Pt",
        "Sc"
    ],
    "structure": {
        "@module": "pymatgen.core.structure",
        "@class": "Structure",
        "charge": null,
        "lattice": {
            "matrix": [
                [
                    0.0,
                    4.886151,
                    4.886151
                ],
                [
                    4.886151,
                    0.0,
                    4.886151
                ],
                [
                    4.886151,
                    4.886151,
                    0.0
                ]
            ],
            "a": 6.910061012002861,
            "b": 6.910061012002861,
            "c": 6.910061012002861,
            "alpha": 60.00000000000001,
            "beta": 60.00000000000001,
            "gamma": 60.00000000000001,
            "volume": 233.30854651481698
        },
        "sites": [
            {
                "species": [
                    {
                        "element": "Sc",
                        "occu": 1
                    }
                ],
                "abc": [
                    0.125,
                    0.125,
                    0.625
                ],
                "xyz": [
                    3.6646132499999995,
                    3.6646132499999995,
                    1.22153775
                ],
                "label": "Sc",
                "properties": {}
            },
            {
                "species": [
                    {
                        "element": "Sc",
                        "occu": 1
                    }
                ],
                "abc": [
                    0.125,
                    0.125,
                    0.125
                ],
                "xyz": [
                    1.22153775,
                    1.22153775,
                    1.22153775
                ],
                "label": "Sc",
                "properties": {}
            },
            {
                "species": [
                    {
                        "element": "Sc",
                        "occu": 1
                    }
                ],
                "abc": [
                    0.125,
                    0.625,
                    0.125
                ],
                "xyz": [
                    3.6646132499999995,
                    1.22153775,
                    3.6646132499999995
                ],
                "label": "Sc",
                "properties": {}
            },
            {
                "species": [
                    {
                        "element": "Sc",
                        "occu": 1
                    }
                ],
                "abc": [
                    0.625,
                    0.125,
                    0.125
                ],
                "xyz": [
                    1.22153775,
                    3.6646132499999995,
                    3.6646132499999995
                ],
                "label": "Sc",
                "properties": {}
            },
            {
                "species": [
                    {
                        "element": "Pt",
                        "occu": 1
                    }
                ],
                "abc": [
                    0.125,
                    0.625,
                    0.625
                ],
                "xyz": [
                    6.1076887499999994,
                    3.6646132499999995,
                    3.6646132499999995
                ],
                "label": "Pt",
                "properties": {}
            },
            {
                "species": [
                    {
                        "element": "Pt",
                        "occu": 1
                    }
                ],
                "abc": [
                    0.625,
                    0.625,
                    0.625
                ],
                "xyz": [
                    6.1076887499999994,
                    6.1076887499999994,
                    6.1076887499999994
                ],
                "label": "Pt",
                "properties": {}
            },
            {
                "species": [
                    {
                        "element": "Pt",
                        "occu": 1
                    }
                ],
                "abc": [
                    0.625,
                    0.125,
                    0.625
                ],
                "xyz": [
                    3.6646132499999995,
                    6.1076887499999994,
                    3.6646132499999995
                ],
                "label": "Pt",
                "properties": {}
            },
            {
                "species": [
                    {
                        "element": "Pt",
                        "occu": 1
                    }
                ],
                "abc": [
                    0.625,
                    0.625,
                    0.125
                ],
                "xyz": [
                    3.6646132499999995,
                    3.6646132499999995,
                    6.1076887499999994
                ],
                "label": "Pt",
                "properties": {}
            },
            {
                "species": [
                    {
                        "element": "O",
                        "occu": 1
                    }
                ],
                "abc": [
                    0.525923,
                    0.974077,
                    0.974077
                ],
                "xyz": [
                    9.518974615253999,
                    7.329226499999999,
                    7.329226499999999
                ],
                "label": "O",
                "properties": {}
            },
            {
                "species": [
                    {
                        "element": "O",
                        "occu": 1
                    }
                ],
                "abc": [
                    0.275923,
                    0.275923,
                    0.724077
                ],
                "xyz": [
                    4.886151,
                    4.886151,
                    2.6964028847459995
                ],
                "label": "O",
                "properties": {}
            },
            {
                "species": [
                    {
                        "element": "O",
                        "occu": 1
                    }
                ],
                "abc": [
                    0.275923,
                    0.724077,
                    0.724077
                ],
                "xyz": [
                    7.075899115254,
                    4.886151,
                    4.886151
                ],
                "label": "O",
                "properties": {}
            },
            {
                "species": [
                    {
                        "element": "O",
                        "occu": 1
                    }
                ],
                "abc": [
                    0.525923,
                    0.974077,
                    0.525923
                ],
                "xyz": [
                    7.329226499999999,
                    5.139478384746,
                    7.329226499999999
                ],
                "label": "O",
                "properties": {}
            },
            {
                "species": [
                    {
                        "element": "O",
                        "occu": 1
                    }
                ],
                "abc": [
                    0.974077,
                    0.525923,
                    0.974077
                ],
                "xyz": [
                    7.329226499999999,
                    9.518974615253999,
                    7.329226499999999
                ],
                "label": "O",
                "properties": {}
            },
            {
                "species": [
                    {
                        "element": "O",
                        "occu": 1
                    }
                ],
                "abc": [
                    0.25,
                    0.25,
                    0.25
                ],
                "xyz": [
                    2.4430755,
                    2.4430755,
                    2.4430755
                ],
                "label": "O",
                "properties": {}
            },
            {
                "species": [
                    {
                        "element": "O",
                        "occu": 1
                    }
                ],
                "abc": [
                    0.525923,
                    0.525923,
                    0.974077
                ],
                "xyz": [
                    7.329226499999999,
                    7.329226499999999,
                    5.139478384746
                ],
                "label": "O",
                "properties": {}
            },
            {
                "species": [
                    {
                        "element": "O",
                        "occu": 1
                    }
                ],
                "abc": [
                    0.275923,
                    0.724077,
                    0.275923
                ],
                "xyz": [
                    4.886151,
                    2.6964028847459995,
                    4.886151
                ],
                "label": "O",
                "properties": {}
            },
            {
                "species": [
                    {
                        "element": "O",
                        "occu": 1
                    }
                ],
                "abc": [
                    0.0,
                    0.0,
                    0.0
                ],
                "xyz": [
                    0.0,
                    0.0,
                    0.0
                ],
                "label": "O",
                "properties": {}
            },
            {
                "species": [
                    {
                        "element": "O",
                        "occu": 1
                    }
                ],
                "abc": [
                    0.724077,
                    0.724077,
                    0.275923
                ],
                "xyz": [
                    4.886151,
                    4.886151,
                    7.075899115254
                ],
                "label": "O",
                "properties": {}
            },
            {
                "species": [
                    {
                        "element": "O",
                        "occu": 1
                    }
                ],
                "abc": [
                    0.724077,
                    0.275923,
                    0.724077
                ],
                "xyz": [
                    4.886151,
                    7.075899115254,
                    4.886151
                ],
                "label": "O",
                "properties": {}
            },
            {
                "species": [
                    {
                        "element": "O",
                        "occu": 1
                    }
                ],
                "abc": [
                    0.974077,
                    0.525923,
                    0.525923
                ],
                "xyz": [
                    5.139478384746,
                    7.329226499999999,
                    7.329226499999999
                ],
                "label": "O",
                "properties": {}
            },
            {
                "species": [
                    {
                        "element": "O",
                        "occu": 1
                    }
                ],
                "abc": [
                    0.974077,
                    0.974077,
                    0.525923
                ],
                "xyz": [
                    7.329226499999999,
                    7.329226499999999,
                    9.518974615253999
                ],
                "label": "O",
                "properties": {}
            },
            {
                "species": [
                    {
                        "element": "O",
                        "occu": 1
                    }
                ],
                "abc": [
                    0.724077,
                    0.275923,
                    0.275923
                ],
                "xyz": [
                    2.6964028847459995,
                    4.886151,
                    4.886151
                ],
                "label": "O",
                "properties": {}
            }
        ]
    },
    "spacegroup": {
        "source": "spglib",
        "symbol": "Fd-3m",
        "number": 227,
        "point_group": "m-3m",
        "crystal_system": "cubic",
        "hall": "F 4d 2 3 -1d"
    },
    "dielectric": {
        "epsilon_ionic": [
            [
                10.71848227,
                0.0,
                0.0
            ],
            [
                0.0,
                10.7186837,
                0.0
            ],
            [
                0.0,
                0.0,
                10.71878389
            ]
        ],
        "epsilon_ionic_avg": 10.718649953333333,
        "epsilon_ionic_eig": [
            10.71848227,
            10.7186837,
            10.71878389
        ],
        "epsilon_electronic": [
            [
                7.02548474,
                -0.0,
                0.0
            ],
            [
                0.0,
                7.02548474,
                -0.0
            ],
            [
                0.0,
                0.0,
                7.02548474
            ]
        ],
        "epsilon_electronic_avg": 7.02548474,
        "epsilon_electronic_eig": [
            7.02548474,
            7.02548474,
            7.02548474
        ]
    },
    "phonon": {
        "lowest_freq": -0.014115289225901074,
        "frequency": [
            -0.014115289225901074,
            -0.014115289217243789,
            -0.014115289217243789,
            4.400114185534887,
            4.400114185534887,
            4.400114185534887,
            4.445169951262896,
            4.445169951262896,
            4.767915328447405,
            4.767915328447405,
            4.767915328447405,
            5.551022343512345,
            5.551022343512345,
            5.551022343512345,
            6.001137823338664,
            6.001137823338664,
            6.001137823338664,
            7.580235471514146,
            7.6587148564171885,
            7.6587148564171885,
            7.6587148564171885,
            8.037668039927665,
            8.037668039927665,
            8.277399119535698,
            8.277399119535698,
            8.277399119535698,
            10.499243487521214,
            10.499243487521214,
            10.499243487521214,
            11.221500607470812,
            11.221500607470812,
            11.221500607470812,
            11.343193593167541,
            11.343193593167541,
            11.343193593167541,
            12.515845671144092,
            12.523921921117267,
            12.523921921117267,
            12.523921921117267,
            13.033090057378011,
            13.033090057378011,
            13.033090057378011,
            14.799333348333306,
            14.799333348333306,
            15.890563079896973,
            16.158494431403916,
            16.93731187993605,
            16.93731187993605,
            16.93731187993605,
            17.354464895885407,
            17.354464895885407,
            17.354464895885407,
            17.42893437647357,
            17.42893437647357,
            20.524763995199656,
            20.524763995199656,
            20.524763995199656,
            21.14139676773019,
            21.14139676773019,
            21.14139676773019,
            21.58099914947813,
            21.58099914947813,
            21.58099914947813,
            22.50616096465359,
            22.50616096465359,
            22.50616096465359
        ]
    },
    "born_effective_charge": {
        "avg_abs_trace": 2.4060030303030304,
        "tensors": [
            [
                [
                    4.13308,
                    0.02746,
                    -0.02746
                ],
                [
                    0.02747,
                    4.13313,
                    -0.02747
                ],
                [
                    -0.02752,
                    -0.02752,
                    4.13312
                ]
            ],
            [
                [
                    4.13308,
                    0.02746,
                    0.02746
                ],
                [
                    0.02747,
                    4.13313,
                    0.02747
                ],
                [
                    0.02752,
                    0.02752,
                    4.13312
                ]
            ],
            [
                [
                    4.13308,
                    -0.02746,
                    0.02746
                ],
                [
                    -0.02747,
                    4.13313,
                    -0.02747
                ],
                [
                    0.02752,
                    -0.02752,
                    4.13312
                ]
            ],
            [
                [
                    4.13308,
                    -0.02746,
                    -0.02746
                ],
                [
                    -0.02747,
                    4.13313,
                    0.02747
                ],
                [
                    -0.02752,
                    0.02752,
                    4.13312
                ]
            ],
            [
                [
                    2.48332,
                    1.0675,
                    1.0675
                ],
                [
                    1.06746,
                    2.48341,
                    -1.06746
                ],
                [
                    1.06767,
                    -1.06767,
                    2.48347
                ]
            ],
            [
                [
                    2.48332,
                    -1.0675,
                    -1.0675
                ],
                [
                    -1.06746,
                    2.48341,
                    -1.06746
                ],
                [
                    -1.06767,
                    -1.06767,
                    2.48347
                ]
            ],
            [
                [
                    2.48332,
                    1.0675,
                    -1.0675
                ],
                [
                    1.06746,
                    2.48341,
                    1.06746
                ],
                [
                    -1.06767,
                    1.06767,
                    2.48347
                ]
            ],
            [
                [
                    2.48332,
                    -1.0675,
                    1.0675
                ],
                [
                    -1.06746,
                    2.48341,
                    1.06746
                ],
                [
                    1.06767,
                    1.06767,
                    2.48347
                ]
            ],
            [
                [
                    -1.44433,
                    -0.0,
                    -0.0
                ],
                [
                    6e-05,
                    -1.8826,
                    0.67864
                ],
                [
                    5e-05,
                    0.67858,
                    -1.88253
                ]
            ],
            [
                [
                    -1.88258,
                    0.67866,
                    -6e-05
                ],
                [
                    0.67864,
                    -1.8826,
                    -6e-05
                ],
                [
                    -0.0,
                    -0.0,
                    -1.44452
                ]
            ],
            [
                [
                    -1.44433,
                    0.0,
                    0.0
                ],
                [
                    6e-05,
                    -1.8826,
                    -0.67864
                ],
                [
                    5e-05,
                    -0.67858,
                    -1.88253
                ]
            ],
            [
                [
                    -1.88258,
                    -6e-05,
                    -0.67866
                ],
                [
                    -0.0,
                    -1.44439,
                    -0.0
                ],
                [
                    -0.67858,
                    -5e-05,
                    -1.88253
                ]
            ],
            [
                [
                    -1.88258,
                    6e-05,
                    0.67866
                ],
                [
                    0.0,
                    -1.44428,
                    0.0
                ],
                [
                    0.67858,
                    5e-05,
                    -1.88253
                ]
            ],
            [
                [
                    -2.81401,
                    -0.0,
                    0.0
                ],
                [
                    0.0,
                    -2.81399,
                    0.0
                ],
                [
                    0.0,
                    -0.0,
                    -2.81421
                ]
            ],
            [
                [
                    -1.88258,
                    -0.67866,
                    -6e-05
                ],
                [
                    -0.67864,
                    -1.8826,
                    -6e-05
                ],
                [
                    0.0,
                    0.0,
                    -1.44452
                ]
            ],
            [
                [
                    -1.88258,
                    -6e-05,
                    0.67866
                ],
                [
                    0.0,
                    -1.44439,
                    0.0
                ],
                [
                    0.67858,
                    -5e-05,
                    -1.88253
                ]
            ],
            [
                [
                    -2.81401,
                    -0.0,
                    0.0
                ],
                [
                    0.0,
                    -2.81399,
                    0.0
                ],
                [
                    0.0,
                    -0.0,
                    -2.81421
                ]
            ],
            [
                [
                    -1.88258,
                    -0.67866,
                    6e-05
                ],
                [
                    -0.67864,
                    -1.8826,
                    6e-05
                ],
                [
                    -0.0,
                    -0.0,
                    -1.44433
                ]
            ],
            [
                [
                    -1.88258,
                    6e-05,
                    -0.67866
                ],
                [
                    0.0,
                    -1.44428,
                    0.0
                ],
                [
                    -0.67858,
                    5e-05,
                    -1.88253
                ]
            ],
            [
                [
                    -1.44414,
                    -0.0,
                    -0.0
                ],
                [
                    -6e-05,
                    -1.8826,
                    -0.67864
                ],
                [
                    -5e-05,
                    -0.67858,
                    -1.88253
                ]
            ],
            [
                [
                    -1.88258,
                    0.67866,
                    6e-05
                ],
                [
                    0.67864,
                    -1.8826,
                    6e-05
                ],
                [
                    0.0,
                    0.0,
                    -1.44433
                ]
            ],
            [
                [
                    -1.44414,
                    0.0,
                    0.0
                ],
                [
                    -6e-05,
                    -1.8826,
                    0.67864
                ],
                [
                    -5e-05,
                    0.67858,
                    -1.88253
                ]
            ]
        ]
    },
    "band_gap": 2.2394999999999996,
    "is_direct": false,
    "formula": "Sc2Pt2O7"
}