{
    "mp_id": "mp-721988",
    "nelements": 4,
    "nsites": 26,
    "elements": [
        "Al",
        "Na",
        "O",
        "Si"
    ],
    "structure": {
        "@module": "pymatgen.core.structure",
        "@class": "Structure",
        "charge": null,
        "lattice": {
            "matrix": [
                [
                    7.19031479,
                    0.00014744,
                    -0.00111695
                ],
                [
                    -1.33675581,
                    7.32702899,
                    0.00103595
                ],
                [
                    -2.33841932,
                    -3.76343198,
                    6.32621948
                ]
            ],
            "a": 7.190314878265666,
            "b": 7.447970931002724,
            "c": 7.723514620518786,
            "alpha": 115.1445106651266,
            "beta": 107.63207448119417,
            "gamma": 100.33825199302694,
            "volume": 333.2928237032292
        },
        "sites": [
            {
                "species": [
                    {
                        "element": "Na",
                        "occu": 1
                    }
                ],
                "abc": [
                    0.85786711,
                    0.7279543,
                    0.7474089
                ],
                "xyz": [
                    3.447482017248126,
                    2.521046187025233,
                    4.728068672293943
                ],
                "label": "Na",
                "properties": {}
            },
            {
                "species": [
                    {
                        "element": "Na",
                        "occu": 1
                    }
                ],
                "abc": [
                    0.14213289,
                    0.2720457,
                    0.2525911
                ],
                "xyz": [
                    0.06765764275187403,
                    1.0426982629747665,
                    1.5980698077060576
                ],
                "label": "Na",
                "properties": {}
            },
            {
                "species": [
                    {
                        "element": "Al",
                        "occu": 1
                    }
                ],
                "abc": [
                    0.79252411,
                    0.15646122,
                    0.8247452
                ],
                "xyz": [
                    3.560747274932635,
                    -1.95735971652595,
                    5.21679602647269
                ],
                "label": "Al",
                "properties": {}
            },
            {
                "species": [
                    {
                        "element": "Al",
                        "occu": 1
                    }
                ],
                "abc": [
                    0.20747589,
                    0.84353878,
                    0.1752548
                ],
                "xyz": [
                    -0.045607614932634655,
                    5.52110416652595,
                    1.1093424535273093
                ],
                "label": "Al",
                "properties": {}
            },
            {
                "species": [
                    {
                        "element": "Si",
                        "occu": 1
                    }
                ],
                "abc": [
                    0.76257502,
                    0.81757127,
                    0.17395177
                ],
                "xyz": [
                    3.9834891198127713,
                    5.335825176546461,
                    1.100452280743047
                ],
                "label": "Si",
                "properties": {}
            },
            {
                "species": [
                    {
                        "element": "Si",
                        "occu": 1
                    }
                ],
                "abc": [
                    0.23742498,
                    0.18242873,
                    0.82604823
                ],
                "xyz": [
                    -0.46834945981277043,
                    -1.7720807265464618,
                    5.225686199256953
                ],
                "label": "Si",
                "properties": {}
            },
            {
                "species": [
                    {
                        "element": "Si",
                        "occu": 1
                    }
                ],
                "abc": [
                    0.68994119,
                    0.42055747,
                    0.20223128
                ],
                "xyz": [
                    3.9258101689654703,
                    2.320454833071774,
                    1.2790245097002104
                ],
                "label": "Si",
                "properties": {}
            },
            {
                "species": [
                    {
                        "element": "Si",
                        "occu": 1
                    }
                ],
                "abc": [
                    0.31005881,
                    0.57944253,
                    0.79776872
                ],
                "xyz": [
                    -0.4106705089654692,
                    1.2432896169282253,
                    5.047113970299789
                ],
                "label": "Si",
                "properties": {}
            },
            {
                "species": [
                    {
                        "element": "Si",
                        "occu": 1
                    }
                ],
                "abc": [
                    0.63940919,
                    0.20416861,
                    0.44060023
                ],
                "xyz": [
                    3.2943216898533523,
                    -0.16212539716837804,
                    2.7868310782952395
                ],
                "label": "Si",
                "properties": {}
            },
            {
                "species": [
                    {
                        "element": "Si",
                        "occu": 1
                    }
                ],
                "abc": [
                    0.36059081,
                    0.79583139,
                    0.55939977
                ],
                "xyz": [
                    0.2208179701466475,
                    3.7258698471683775,
                    3.53930740170476
                ],
                "label": "Si",
                "properties": {}
            },
            {
                "species": [
                    {
                        "element": "O",
                        "occu": 1
                    }
                ],
                "abc": [
                    0.03489818,
                    0.12117045,
                    0.86818239
                ],
                "xyz": [
                    -1.941220877299507,
                    -2.379520825729828,
                    5.492398894816484
                ],
                "label": "O",
                "properties": {}
            },
            {
                "species": [
                    {
                        "element": "O",
                        "occu": 1
                    }
                ],
                "abc": [
                    0.96510182,
                    0.87882955,
                    0.13181761
                ],
                "xyz": [
                    5.456360537299508,
                    5.943265275729827,
                    0.8337395851835163
                ],
                "label": "O",
                "properties": {}
            },
            {
                "species": [
                    {
                        "element": "O",
                        "occu": 1
                    }
                ],
                "abc": [
                    0.72390661,
                    0.41311071,
                    0.41934631
                ],
                "xyz": [
                    3.6722807496213283,
                    1.4487995672910676,
                    2.652496189740104
                ],
                "label": "O",
                "properties": {}
            },
            {
                "species": [
                    {
                        "element": "O",
                        "occu": 1
                    }
                ],
                "abc": [
                    0.27609339,
                    0.58688929,
                    0.58065369
                ],
                "xyz": [
                    -0.15714108962132745,
                    2.114944882708933,
                    3.6736422902598957
                ],
                "label": "O",
                "properties": {}
            },
            {
                "species": [
                    {
                        "element": "O",
                        "occu": 1
                    }
                ],
                "abc": [
                    0.8132541,
                    0.29283653,
                    0.08322076
                ],
                "xyz": [
                    5.261497017391316,
                    1.8325459812416038,
                    0.5258677928886633
                ],
                "label": "O",
                "properties": {}
            },
            {
                "species": [
                    {
                        "element": "O",
                        "occu": 1
                    }
                ],
                "abc": [
                    0.1867459,
                    0.70716347,
                    0.91677924
                ],
                "xyz": [
                    -1.7463573573913165,
                    1.7311984687583961,
                    5.800270687111336
                ],
                "label": "O",
                "properties": {}
            },
            {
                "species": [
                    {
                        "element": "O",
                        "occu": 1
                    }
                ],
                "abc": [
                    0.73865995,
                    0.0317294,
                    0.32870435
                ],
                "xyz": [
                    4.500134500859804,
                    -1.0044653210967789,
                    2.0786636859715153
                ],
                "label": "O",
                "properties": {}
            },
            {
                "species": [
                    {
                        "element": "O",
                        "occu": 1
                    }
                ],
                "abc": [
                    0.26134005,
                    0.9682706,
                    0.67129565
                ],
                "xyz": [
                    -0.9849948408598046,
                    4.568209771096779,
                    4.247474794028484
                ],
                "label": "O",
                "properties": {}
            },
            {
                "species": [
                    {
                        "element": "O",
                        "occu": 1
                    }
                ],
                "abc": [
                    0.7305947,
                    0.29077822,
                    0.69052375
                ],
                "xyz": [
                    3.2497723239803054,
                    -0.4680909972163598,
                    4.367889992599494
                ],
                "label": "O",
                "properties": {}
            },
            {
                "species": [
                    {
                        "element": "O",
                        "occu": 1
                    }
                ],
                "abc": [
                    0.2694053,
                    0.70922178,
                    0.30947625
                ],
                "xyz": [
                    0.2653673360196954,
                    4.031835447216359,
                    1.958248487400506
                ],
                "label": "O",
                "properties": {}
            },
            {
                "species": [
                    {
                        "element": "O",
                        "occu": 1
                    }
                ],
                "abc": [
                    0.77954343,
                    0.6729974,
                    0.2845937
                ],
                "xyz": [
                    4.0400300631811525,
                    3.860137363991419,
                    1.8002286894476676
                ],
                "label": "O",
                "properties": {}
            },
            {
                "species": [
                    {
                        "element": "O",
                        "occu": 1
                    }
                ],
                "abc": [
                    0.22045657,
                    0.3270026,
                    0.7154063
                ],
                "xyz": [
                    -0.5248904031811514,
                    -0.2963929139914194,
                    4.525909790552333
                ],
                "label": "O",
                "properties": {}
            },
            {
                "species": [
                    {
                        "element": "O",
                        "occu": 1
                    }
                ],
                "abc": [
                    0.61305308,
                    0.89471159,
                    0.6818822
                ],
                "xyz": [
                    1.6175072015281122,
                    3.9894508680923533,
                    4.3139785835392095
                ],
                "label": "O",
                "properties": {}
            },
            {
                "species": [
                    {
                        "element": "O",
                        "occu": 1
                    }
                ],
                "abc": [
                    0.38694692,
                    0.10528841,
                    0.3181178
                ],
                "xyz": [
                    1.8976324584718895,
                    -0.42570641809235343,
                    2.0121598964607896
                ],
                "label": "O",
                "properties": {}
            },
            {
                "species": [
                    {
                        "element": "O",
                        "occu": 1
                    }
                ],
                "abc": [
                    0.56082041,
                    0.68042991,
                    0.94485608
                ],
                "xyz": [
                    0.9134369409751222,
                    1.4297107756249026,
                    5.977445422100754
                ],
                "label": "O",
                "properties": {}
            },
            {
                "species": [
                    {
                        "element": "O",
                        "occu": 1
                    }
                ],
                "abc": [
                    0.43917959,
                    0.31957009,
                    0.05514392
                ],
                "xyz": [
                    2.601702719024879,
                    2.1340336743750967,
                    0.3486930578992466
                ],
                "label": "O",
                "properties": {}
            }
        ]
    },
    "spacegroup": {
        "source": "spglib",
        "symbol": "P-1",
        "number": 2,
        "point_group": "-1",
        "crystal_system": "triclinic",
        "hall": "-P 1"
    },
    "dielectric": {
        "epsilon_ionic": [
            [
                3.87543089,
                1.52017348,
                -0.47623803
            ],
            [
                1.52017348,
                4.28464291,
                -0.61956887
            ],
            [
                -0.47623803,
                -0.61956887,
                2.60778179
            ]
        ],
        "epsilon_ionic_avg": 3.5892851966666677,
        "epsilon_ionic_eig": [
            5.804246072029295,
            2.562005868379865,
            2.4016036495908435
        ],
        "epsilon_electronic": [
            [
                2.44911235,
                0.00854094,
                -0.00266085
            ],
            [
                0.00854054,
                2.4635155,
                -0.01764116
            ],
            [
                -0.00266014,
                -0.01764122,
                2.43967267
            ]
        ],
        "epsilon_electronic_avg": 2.4507668400000013,
        "epsilon_electronic_eig": [
            2.4757890620542016,
            2.4463688972145206,
            2.4301425607312814
        ]
    },
    "phonon": {
        "lowest_freq": -0.1070011830213896,
        "frequency": [
            -0.1070011830213896,
            -0.07155268190237826,
            -0.06021075677518108,
            1.7290658523775388,
            1.9090289290231475,
            2.0365458892836377,
            2.3278497300769416,
            2.3549629982005893,
            3.3807750241845502,
            4.228201757450896,
            4.2475475630772905,
            4.519499577414198,
            4.828496900331001,
            4.9171862369950405,
            5.024285481812903,
            5.345746413452232,
            5.394669171310894,
            5.629929542063259,
            5.901970979288489,
            6.114825459897036,
            6.138608761023656,
            7.234487278806976,
            7.268738657727639,
            7.5586272624924735,
            7.772726356406791,
            7.914991060519823,
            8.327808368028593,
            8.907355326102598,
            9.139408868466019,
            9.323300838452699,
            9.468563908671168,
            9.52764574039726,
            9.86041553594301,
            10.408745853040612,
            10.9370333420861,
            11.070199608182723,
            11.421236368844742,
            11.654511702635435,
            11.679962525308841,
            11.853600999847867,
            11.891235852615779,
            12.989393578018518,
            13.229733409605204,
            13.536581532786235,
            13.684385771619054,
            13.771367018037132,
            14.463539429071972,
            15.320087053767056,
            16.696028689313938,
            16.907270982139405,
            17.753689790899223,
            18.50656853572525,
            18.878984956464606,
            18.940383082268024,
            21.240399767680934,
            21.323686964247162,
            21.817400402858794,
            22.23630027001177,
            22.311823475352703,
            22.698652825708724,
            23.053902258277542,
            23.76945140491897,
            28.64091518592685,
            28.73663221243429,
            29.48750219828641,
            29.53128687083454,
            29.827885470258447,
            30.397566719135106,
            30.46055659100239,
            30.54675251959523,
            31.093284373652807,
            32.11682612039219,
            32.28431564632933,
            32.36387119770249,
            32.89385119360904,
            33.36399502580911,
            34.16289589018643,
            34.296491424077125
        ]
    },
    "born_effective_charge": {
        "avg_abs_trace": 2.0186607692307694,
        "tensors": [
            [
                [
                    1.13342,
                    -0.02708,
                    0.01014
                ],
                [
                    -0.03316,
                    1.15559,
                    -0.00542
                ],
                [
                    0.00861,
                    0.01266,
                    1.13049
                ]
            ],
            [
                [
                    1.13341,
                    -0.02708,
                    0.01014
                ],
                [
                    -0.03316,
                    1.15559,
                    -0.00541
                ],
                [
                    0.00862,
                    0.01265,
                    1.13048
                ]
            ],
            [
                [
                    2.85218,
                    0.13813,
                    -0.05138
                ],
                [
                    0.07322,
                    2.25218,
                    0.06231
                ],
                [
                    0.05867,
                    -0.1935,
                    2.66993
                ]
            ],
            [
                [
                    2.85219,
                    0.13812,
                    -0.05137
                ],
                [
                    0.07322,
                    2.25219,
                    0.0623
                ],
                [
                    0.05864,
                    -0.19348,
                    2.66992
                ]
            ],
            [
                [
                    3.42686,
                    -0.07123,
                    0.03665
                ],
                [
                    -0.15036,
                    3.2503,
                    0.06029
                ],
                [
                    0.05312,
                    0.38017,
                    2.9451
                ]
            ],
            [
                [
                    3.42683,
                    -0.07126,
                    0.03664
                ],
                [
                    -0.15033,
                    3.25036,
                    0.06031
                ],
                [
                    0.05308,
                    0.38018,
                    2.9451
                ]
            ],
            [
                [
                    2.90405,
                    -0.02793,
                    -0.00833
                ],
                [
                    0.08492,
                    3.41688,
                    -0.23214
                ],
                [
                    0.04488,
                    -0.02405,
                    3.05074
                ]
            ],
            [
                [
                    2.90404,
                    -0.02789,
                    -0.00835
                ],
                [
                    0.08482,
                    3.41696,
                    -0.23212
                ],
                [
                    0.04486,
                    -0.02398,
                    3.05083
                ]
            ],
            [
                [
                    2.85339,
                    -0.00651,
                    -0.00999
                ],
                [
                    0.04246,
                    3.21209,
                    -0.05247
                ],
                [
                    -0.19599,
                    -0.28741,
                    3.11059
                ]
            ],
            [
                [
                    2.85336,
                    -0.00652,
                    -0.01004
                ],
                [
                    0.04241,
                    3.21211,
                    -0.05242
                ],
                [
                    -0.19605,
                    -0.28745,
                    3.11062
                ]
            ],
            [
                [
                    -2.58031,
                    -0.1659,
                    0.02222
                ],
                [
                    -0.17465,
                    -1.27897,
                    0.07113
                ],
                [
                    -0.05369,
                    0.0495,
                    -1.15324
                ]
            ],
            [
                [
                    -2.58037,
                    -0.1659,
                    0.02229
                ],
                [
                    -0.17463,
                    -1.27893,
                    0.07113
                ],
                [
                    -0.0536,
                    0.04959,
                    -1.15326
                ]
            ],
            [
                [
                    -1.04983,
                    -0.231,
                    0.11725
                ],
                [
                    -0.30841,
                    -2.26319,
                    0.59231
                ],
                [
                    0.16748,
                    0.55146,
                    -1.65302
                ]
            ],
            [
                [
                    -1.04977,
                    -0.231,
                    0.11732
                ],
                [
                    -0.30849,
                    -2.26317,
                    0.59218
                ],
                [
                    0.16745,
                    0.55139,
                    -1.65304
                ]
            ],
            [
                [
                    -1.8168,
                    0.18894,
                    0.56726
                ],
                [
                    0.1673,
                    -1.20283,
                    -0.10216
                ],
                [
                    0.46949,
                    -0.10571,
                    -1.81939
                ]
            ],
            [
                [
                    -1.81695,
                    0.18903,
                    0.56739
                ],
                [
                    0.16799,
                    -1.20304,
                    -0.10226
                ],
                [
                    0.46963,
                    -0.10584,
                    -1.81931
                ]
            ],
            [
                [
                    -1.8587,
                    0.65123,
                    0.61131
                ],
                [
                    0.68693,
                    -1.67845,
                    -0.5935
                ],
                [
                    0.6373,
                    -0.55727,
                    -1.59789
                ]
            ],
            [
                [
                    -1.85867,
                    0.65112,
                    0.61139
                ],
                [
                    0.68688,
                    -1.67841,
                    -0.59353
                ],
                [
                    0.63734,
                    -0.55724,
                    -1.59788
                ]
            ],
            [
                [
                    -1.14141,
                    -0.01318,
                    0.00423
                ],
                [
                    0.01525,
                    -1.50848,
                    0.38633
                ],
                [
                    -0.03712,
                    0.49471,
                    -2.10143
                ]
            ],
            [
                [
                    -1.14139,
                    -0.013,
                    0.0045
                ],
                [
                    0.0151,
                    -1.50861,
                    0.38599
                ],
                [
                    -0.03718,
                    0.49496,
                    -2.10122
                ]
            ],
            [
                [
                    -1.07685,
                    -0.00259,
                    -0.05387
                ],
                [
                    -0.03044,
                    -2.67343,
                    0.08532
                ],
                [
                    -0.03946,
                    -0.04344,
                    -1.16111
                ]
            ],
            [
                [
                    -1.07679,
                    -0.00255,
                    -0.05388
                ],
                [
                    -0.03035,
                    -2.67337,
                    0.08538
                ],
                [
                    -0.03945,
                    -0.04327,
                    -1.16134
                ]
            ],
            [
                [
                    -1.80941,
                    -0.34007,
                    -0.45547
                ],
                [
                    -0.30405,
                    -1.53496,
                    -0.25602
                ],
                [
                    -0.32613,
                    -0.15128,
                    -1.42351
                ]
            ],
            [
                [
                    -1.80954,
                    -0.34002,
                    -0.4554
                ],
                [
                    -0.30433,
                    -1.53483,
                    -0.25605
                ],
                [
                    -0.32653,
                    -0.15127,
                    -1.42358
                ]
            ],
            [
                [
                    -1.83642,
                    -0.09293,
                    -0.79035
                ],
                [
                    -0.06907,
                    -1.14683,
                    -0.01573
                ],
                [
                    -0.78696,
                    -0.12604,
                    -1.99728
                ]
            ],
            [
                [
                    -1.83651,
                    -0.09293,
                    -0.7903
                ],
                [
                    -0.06908,
                    -1.14674,
                    -0.01574
                ],
                [
                    -0.78701,
                    -0.12602,
                    -1.9973
                ]
            ]
        ]
    },
    "band_gap": 4.9459,
    "is_direct": false,
    "formula": "NaAlSi3O8"
}