{
    "mp_id": "mp-755116",
    "nelements": 3,
    "nsites": 22,
    "elements": [
        "In",
        "O",
        "Pt"
    ],
    "structure": {
        "@module": "pymatgen.core.structure",
        "@class": "Structure",
        "charge": null,
        "lattice": {
            "matrix": [
                [
                    0.0,
                    4.98531188,
                    4.98531188
                ],
                [
                    4.98531188,
                    0.0,
                    4.98531188
                ],
                [
                    4.98531188,
                    4.98531188,
                    0.0
                ]
            ],
            "a": 7.050295673355712,
            "b": 7.050295673355712,
            "c": 7.050295673355712,
            "alpha": 59.99999999999999,
            "beta": 59.99999999999999,
            "gamma": 59.99999999999999,
            "volume": 247.80324788841853
        },
        "sites": [
            {
                "species": [
                    {
                        "element": "In",
                        "occu": 1
                    }
                ],
                "abc": [
                    0.625,
                    0.625,
                    0.625
                ],
                "xyz": [
                    6.2316398500000005,
                    6.2316398500000005,
                    6.2316398500000005
                ],
                "label": "In",
                "properties": {}
            },
            {
                "species": [
                    {
                        "element": "In",
                        "occu": 1
                    }
                ],
                "abc": [
                    0.125,
                    0.625,
                    0.625
                ],
                "xyz": [
                    6.2316398500000005,
                    3.7389839100000004,
                    3.7389839100000004
                ],
                "label": "In",
                "properties": {}
            },
            {
                "species": [
                    {
                        "element": "In",
                        "occu": 1
                    }
                ],
                "abc": [
                    0.625,
                    0.125,
                    0.625
                ],
                "xyz": [
                    3.7389839100000004,
                    6.2316398500000005,
                    3.7389839100000004
                ],
                "label": "In",
                "properties": {}
            },
            {
                "species": [
                    {
                        "element": "In",
                        "occu": 1
                    }
                ],
                "abc": [
                    0.625,
                    0.625,
                    0.125
                ],
                "xyz": [
                    3.7389839100000004,
                    3.7389839100000004,
                    6.2316398500000005
                ],
                "label": "In",
                "properties": {}
            },
            {
                "species": [
                    {
                        "element": "Pt",
                        "occu": 1
                    }
                ],
                "abc": [
                    0.125,
                    0.125,
                    0.625
                ],
                "xyz": [
                    3.7389839100000004,
                    3.7389839100000004,
                    1.24632797
                ],
                "label": "Pt",
                "properties": {}
            },
            {
                "species": [
                    {
                        "element": "Pt",
                        "occu": 1
                    }
                ],
                "abc": [
                    0.125,
                    0.625,
                    0.125
                ],
                "xyz": [
                    3.7389839100000004,
                    1.24632797,
                    3.7389839100000004
                ],
                "label": "Pt",
                "properties": {}
            },
            {
                "species": [
                    {
                        "element": "Pt",
                        "occu": 1
                    }
                ],
                "abc": [
                    0.625,
                    0.125,
                    0.125
                ],
                "xyz": [
                    1.24632797,
                    3.7389839100000004,
                    3.7389839100000004
                ],
                "label": "Pt",
                "properties": {}
            },
            {
                "species": [
                    {
                        "element": "Pt",
                        "occu": 1
                    }
                ],
                "abc": [
                    0.125,
                    0.125,
                    0.125
                ],
                "xyz": [
                    1.24632797,
                    1.24632797,
                    1.24632797
                ],
                "label": "Pt",
                "properties": {}
            },
            {
                "species": [
                    {
                        "element": "O",
                        "occu": 1
                    }
                ],
                "abc": [
                    0.75,
                    0.75,
                    0.75
                ],
                "xyz": [
                    7.47796782,
                    7.47796782,
                    7.47796782
                ],
                "label": "O",
                "properties": {}
            },
            {
                "species": [
                    {
                        "element": "O",
                        "occu": 1
                    }
                ],
                "abc": [
                    0.21611269,
                    0.78388731,
                    0.78388731
                ],
                "xyz": [
                    7.815845438248486,
                    4.98531188,
                    4.98531188
                ],
                "label": "O",
                "properties": {}
            },
            {
                "species": [
                    {
                        "element": "O",
                        "occu": 1
                    }
                ],
                "abc": [
                    0.21611269,
                    0.78388731,
                    0.21611269
                ],
                "xyz": [
                    4.98531188,
                    2.1547783217515146,
                    4.98531188
                ],
                "label": "O",
                "properties": {}
            },
            {
                "species": [
                    {
                        "element": "O",
                        "occu": 1
                    }
                ],
                "abc": [
                    0.78388731,
                    0.21611269,
                    0.78388731
                ],
                "xyz": [
                    4.98531188,
                    7.815845438248486,
                    4.98531188
                ],
                "label": "O",
                "properties": {}
            },
            {
                "species": [
                    {
                        "element": "O",
                        "occu": 1
                    }
                ],
                "abc": [
                    0.21611269,
                    0.21611269,
                    0.78388731
                ],
                "xyz": [
                    4.98531188,
                    4.98531188,
                    2.1547783217515146
                ],
                "label": "O",
                "properties": {}
            },
            {
                "species": [
                    {
                        "element": "O",
                        "occu": 1
                    }
                ],
                "abc": [
                    0.78388731,
                    0.78388731,
                    0.21611269
                ],
                "xyz": [
                    4.98531188,
                    4.98531188,
                    7.815845438248486
                ],
                "label": "O",
                "properties": {}
            },
            {
                "species": [
                    {
                        "element": "O",
                        "occu": 1
                    }
                ],
                "abc": [
                    0.46611269,
                    0.03388731,
                    0.03388731
                ],
                "xyz": [
                    0.3378776182484856,
                    2.49265594,
                    2.49265594
                ],
                "label": "O",
                "properties": {}
            },
            {
                "species": [
                    {
                        "element": "O",
                        "occu": 1
                    }
                ],
                "abc": [
                    0.78388731,
                    0.21611269,
                    0.21611269
                ],
                "xyz": [
                    2.1547783217515146,
                    4.98531188,
                    4.98531188
                ],
                "label": "O",
                "properties": {}
            },
            {
                "species": [
                    {
                        "element": "O",
                        "occu": 1
                    }
                ],
                "abc": [
                    0.46611269,
                    0.46611269,
                    0.03388731
                ],
                "xyz": [
                    2.49265594,
                    2.49265594,
                    4.647434261751514
                ],
                "label": "O",
                "properties": {}
            },
            {
                "species": [
                    {
                        "element": "O",
                        "occu": 1
                    }
                ],
                "abc": [
                    0.03388731,
                    0.46611269,
                    0.03388731
                ],
                "xyz": [
                    2.49265594,
                    0.3378776182484856,
                    2.49265594
                ],
                "label": "O",
                "properties": {}
            },
            {
                "species": [
                    {
                        "element": "O",
                        "occu": 1
                    }
                ],
                "abc": [
                    0.03388731,
                    0.03388731,
                    0.46611269
                ],
                "xyz": [
                    2.49265594,
                    2.49265594,
                    0.3378776182484856
                ],
                "label": "O",
                "properties": {}
            },
            {
                "species": [
                    {
                        "element": "O",
                        "occu": 1
                    }
                ],
                "abc": [
                    0.46611269,
                    0.03388731,
                    0.46611269
                ],
                "xyz": [
                    2.49265594,
                    4.647434261751514,
                    2.49265594
                ],
                "label": "O",
                "properties": {}
            },
            {
                "species": [
                    {
                        "element": "O",
                        "occu": 1
                    }
                ],
                "abc": [
                    0.03388731,
                    0.46611269,
                    0.46611269
                ],
                "xyz": [
                    4.647434261751514,
                    2.49265594,
                    2.49265594
                ],
                "label": "O",
                "properties": {}
            },
            {
                "species": [
                    {
                        "element": "O",
                        "occu": 1
                    }
                ],
                "abc": [
                    0.5,
                    0.5,
                    0.5
                ],
                "xyz": [
                    4.98531188,
                    4.98531188,
                    4.98531188
                ],
                "label": "O",
                "properties": {}
            }
        ]
    },
    "spacegroup": {
        "source": "spglib",
        "symbol": "Fd-3m",
        "number": 227,
        "point_group": "m-3m",
        "crystal_system": "cubic",
        "hall": "F 4d 2 3 -1d"
    },
    "dielectric": {
        "epsilon_ionic": [
            [
                5.35164543,
                -0.0,
                -0.0
            ],
            [
                -0.0,
                5.35158474,
                -0.0
            ],
            [
                -0.0,
                -0.0,
                5.35125494
            ]
        ],
        "epsilon_ionic_avg": 5.351495036666666,
        "epsilon_ionic_eig": [
            5.35164543,
            5.35158474,
            5.35125494
        ],
        "epsilon_electronic": [
            [
                6.86522771,
                0.0,
                0.0
            ],
            [
                -0.0,
                6.86522771,
                0.0
            ],
            [
                0.0,
                0.0,
                6.86522771
            ]
        ],
        "epsilon_electronic_avg": 6.86522771,
        "epsilon_electronic_eig": [
            6.86522771,
            6.86522771,
            6.86522771
        ]
    },
    "phonon": {
        "lowest_freq": -0.014422807665999765,
        "frequency": [
            -0.014422807665999765,
            -0.014422807665999765,
            -0.014422807665999765,
            3.1622884502232416,
            3.1622884502232416,
            3.1622884502232416,
            3.5508546382335546,
            3.5508546382335546,
            3.946781249391317,
            3.946781249391317,
            3.946781249391317,
            4.668213176055555,
            4.668213176055555,
            4.668213176055555,
            5.6750591039516625,
            5.6750591039516625,
            5.6750591039516625,
            6.602280376782743,
            6.602280376782743,
            6.602280376782743,
            6.669851480318026,
            6.669851480318026,
            7.346782211261838,
            8.101030672399666,
            8.101030672399666,
            8.101030672399666,
            8.882123618734424,
            10.650351460041035,
            10.650351460041035,
            10.650351460041035,
            11.276702785003746,
            11.276702785003746,
            11.276702785003746,
            12.90591582440589,
            12.90591582440589,
            12.90591582440589,
            13.454293544599068,
            13.454293544599068,
            13.454293544599068,
            14.016543871806041,
            14.016543871806041,
            14.902872193735433,
            14.902872193735433,
            14.902872193735433,
            15.295659011720813,
            16.158722971252494,
            16.238581323900064,
            16.238581323900064,
            16.238581323900064,
            17.742923729813473,
            17.742923729813473,
            17.742923729813473,
            17.750086132824237,
            17.750086132824237,
            20.44796202428247,
            20.44796202428247,
            20.44796202428247,
            21.120120724822602,
            21.120120724822602,
            21.120120724822602,
            21.342739112080356,
            21.342739112080356,
            21.342739112080356,
            22.340581827916328,
            22.340581827916328,
            22.340581827916328
        ]
    },
    "born_effective_charge": {
        "avg_abs_trace": 2.0615275757575757,
        "tensors": [
            [
                [
                    3.54981,
                    -0.08683,
                    -0.08683
                ],
                [
                    -0.08682,
                    3.5498,
                    -0.08682
                ],
                [
                    -0.08686,
                    -0.08686,
                    3.54975
                ]
            ],
            [
                [
                    3.54981,
                    0.08683,
                    0.08683
                ],
                [
                    0.08682,
                    3.5498,
                    -0.08682
                ],
                [
                    0.08686,
                    -0.08686,
                    3.54975
                ]
            ],
            [
                [
                    3.54981,
                    0.08683,
                    -0.08683
                ],
                [
                    0.08682,
                    3.5498,
                    0.08682
                ],
                [
                    -0.08686,
                    0.08686,
                    3.54975
                ]
            ],
            [
                [
                    3.54981,
                    -0.08683,
                    0.08683
                ],
                [
                    -0.08682,
                    3.5498,
                    0.08682
                ],
                [
                    0.08686,
                    0.08686,
                    3.54975
                ]
            ],
            [
                [
                    2.11945,
                    -0.66397,
                    0.66397
                ],
                [
                    -0.66392,
                    2.11946,
                    0.66392
                ],
                [
                    0.66363,
                    0.66363,
                    2.11933
                ]
            ],
            [
                [
                    2.11945,
                    0.66397,
                    -0.66397
                ],
                [
                    0.66392,
                    2.11946,
                    0.66392
                ],
                [
                    -0.66363,
                    0.66363,
                    2.11933
                ]
            ],
            [
                [
                    2.11945,
                    0.66397,
                    0.66397
                ],
                [
                    0.66392,
                    2.11946,
                    -0.66392
                ],
                [
                    0.66363,
                    -0.66363,
                    2.11933
                ]
            ],
            [
                [
                    2.11945,
                    -0.66397,
                    -0.66397
                ],
                [
                    -0.66392,
                    2.11946,
                    -0.66392
                ],
                [
                    -0.66363,
                    -0.66363,
                    2.11933
                ]
            ],
            [
                [
                    -2.28449,
                    0.0,
                    0.0
                ],
                [
                    -0.0,
                    -2.2845,
                    -0.0
                ],
                [
                    0.0,
                    -0.0,
                    -2.28443
                ]
            ],
            [
                [
                    -0.93377,
                    0.0,
                    0.0
                ],
                [
                    -1e-05,
                    -1.79661,
                    0.93003
                ],
                [
                    -1e-05,
                    0.93006,
                    -1.79657
                ]
            ],
            [
                [
                    -1.79662,
                    3e-05,
                    -0.93
                ],
                [
                    -0.0,
                    -0.93381,
                    -0.0
                ],
                [
                    -0.93006,
                    1e-05,
                    -1.79657
                ]
            ],
            [
                [
                    -1.79662,
                    -3e-05,
                    0.93
                ],
                [
                    -0.0,
                    -0.93377,
                    -0.0
                ],
                [
                    0.93006,
                    -1e-05,
                    -1.79657
                ]
            ],
            [
                [
                    -1.79662,
                    -0.93,
                    3e-05
                ],
                [
                    -0.93003,
                    -1.79661,
                    1e-05
                ],
                [
                    0.0,
                    -0.0,
                    -0.93376
                ]
            ],
            [
                [
                    -1.79662,
                    0.93,
                    -3e-05
                ],
                [
                    0.93003,
                    -1.79661,
                    -1e-05
                ],
                [
                    0.0,
                    0.0,
                    -0.93368
                ]
            ],
            [
                [
                    -0.93377,
                    -0.0,
                    -0.0
                ],
                [
                    -1e-05,
                    -1.79661,
                    -0.93003
                ],
                [
                    -1e-05,
                    -0.93006,
                    -1.79657
                ]
            ],
            [
                [
                    -0.9338,
                    0.0,
                    0.0
                ],
                [
                    1e-05,
                    -1.79661,
                    -0.93003
                ],
                [
                    1e-05,
                    -0.93006,
                    -1.79657
                ]
            ],
            [
                [
                    -1.79662,
                    0.93,
                    3e-05
                ],
                [
                    0.93003,
                    -1.79661,
                    1e-05
                ],
                [
                    0.0,
                    -0.0,
                    -0.93376
                ]
            ],
            [
                [
                    -1.79662,
                    -3e-05,
                    -0.93
                ],
                [
                    0.0,
                    -0.93377,
                    0.0
                ],
                [
                    -0.93006,
                    -1e-05,
                    -1.79657
                ]
            ],
            [
                [
                    -1.79662,
                    -0.93,
                    -3e-05
                ],
                [
                    -0.93003,
                    -1.79661,
                    -1e-05
                ],
                [
                    -0.0,
                    -0.0,
                    -0.93368
                ]
            ],
            [
                [
                    -1.79662,
                    3e-05,
                    0.93
                ],
                [
                    -0.0,
                    -0.93381,
                    -0.0
                ],
                [
                    0.93006,
                    1e-05,
                    -1.79657
                ]
            ],
            [
                [
                    -0.9338,
                    -0.0,
                    -0.0
                ],
                [
                    1e-05,
                    -1.79661,
                    0.93003
                ],
                [
                    1e-05,
                    0.93006,
                    -1.79657
                ]
            ],
            [
                [
                    -2.28449,
                    -0.0,
                    -0.0
                ],
                [
                    -0.0,
                    -2.2845,
                    -0.0
                ],
                [
                    0.0,
                    0.0,
                    -2.28443
                ]
            ]
        ]
    },
    "band_gap": 2.4817,
    "is_direct": true,
    "formula": "In2Pt2O7"
}