{
    "mp_id": "mp-7094",
    "nelements": 3,
    "nsites": 12,
    "elements": [
        "Ag",
        "O",
        "Re"
    ],
    "structure": {
        "@module": "pymatgen.core.structure",
        "@class": "Structure",
        "charge": null,
        "lattice": {
            "matrix": [
                [
                    -2.67155246,
                    2.67155258,
                    5.70824887
                ],
                [
                    2.67155246,
                    -2.67155258,
                    5.70824887
                ],
                [
                    2.67155258,
                    2.67155246,
                    -5.70824887
                ]
            ],
            "a": 6.845326208157869,
            "b": 6.845326208157869,
            "c": 6.845326208157869,
            "alpha": 134.05690672179784,
            "beta": 134.05690672179784,
            "gamma": 66.99913870293278,
            "volume": 162.96349247480163
        },
        "sites": [
            {
                "species": [
                    {
                        "element": "Re",
                        "occu": 1
                    }
                ],
                "abc": [
                    0.0,
                    0.0,
                    0.0
                ],
                "xyz": [
                    0.0,
                    0.0,
                    0.0
                ],
                "label": "Re",
                "properties": {}
            },
            {
                "species": [
                    {
                        "element": "Re",
                        "occu": 1
                    }
                ],
                "abc": [
                    0.75,
                    0.25,
                    0.5
                ],
                "xyz": [
                    6.000000030148556e-08,
                    2.67155252,
                    2.854124435
                ],
                "label": "Re",
                "properties": {}
            },
            {
                "species": [
                    {
                        "element": "Ag",
                        "occu": 1
                    }
                ],
                "abc": [
                    0.25,
                    0.75,
                    0.5
                ],
                "xyz": [
                    2.6715525199999997,
                    -6.000000007944095e-08,
                    2.854124435
                ],
                "label": "Ag",
                "properties": {}
            },
            {
                "species": [
                    {
                        "element": "Ag",
                        "occu": 1
                    }
                ],
                "abc": [
                    0.5,
                    0.5,
                    0.0
                ],
                "xyz": [
                    0.0,
                    0.0,
                    5.70824887
                ],
                "label": "Ag",
                "properties": {}
            },
            {
                "species": [
                    {
                        "element": "O",
                        "occu": 1
                    }
                ],
                "abc": [
                    0.14544498,
                    0.05275812,
                    0.37206599
                ],
                "xyz": [
                    0.7463760466720786,
                    1.2416116308319343,
                    -0.9924526453774345
                ],
                "label": "O",
                "properties": {}
            },
            {
                "species": [
                    {
                        "element": "O",
                        "occu": 1
                    }
                ],
                "abc": [
                    0.52337899,
                    0.39544498,
                    0.59268786
                ],
                "xyz": [
                    1.2416143623845144,
                    1.9251791448803812,
                    1.8616660813736954
                ],
                "label": "O",
                "properties": {}
            },
            {
                "species": [
                    {
                        "element": "O",
                        "occu": 1
                    }
                ],
                "abc": [
                    0.80275812,
                    0.93069213,
                    0.40731214
                ],
                "xyz": [
                    1.4299382176154856,
                    0.7463733151196186,
                    7.569926367871435
                ],
                "label": "O",
                "properties": {}
            },
            {
                "species": [
                    {
                        "element": "O",
                        "occu": 1
                    }
                ],
                "abc": [
                    0.68069213,
                    0.77337899,
                    0.62793401
                ],
                "xyz": [
                    1.925176533327922,
                    1.4299408291680658,
                    4.715796224622565
                ],
                "label": "O",
                "properties": {}
            },
            {
                "species": [
                    {
                        "element": "O",
                        "occu": 1
                    }
                ],
                "abc": [
                    0.06930787,
                    0.47662101,
                    0.87206599
                ],
                "xyz": [
                    3.417928566672079,
                    1.241611570831934,
                    -1.8616717896225654
                ],
                "label": "O",
                "properties": {}
            },
            {
                "species": [
                    {
                        "element": "O",
                        "occu": 1
                    }
                ],
                "abc": [
                    0.94724188,
                    0.31930787,
                    0.09268786
                ],
                "xyz": [
                    -1.429938157615486,
                    1.9251792048803815,
                    6.7006958071285645
                ],
                "label": "O",
                "properties": {}
            },
            {
                "species": [
                    {
                        "element": "O",
                        "occu": 1
                    }
                ],
                "abc": [
                    0.22662101,
                    0.85455502,
                    0.90731214
                ],
                "xyz": [
                    4.101490737615487,
                    0.7463732551196185,
                    0.9924583536263052
                ],
                "label": "O",
                "properties": {}
            },
            {
                "species": [
                    {
                        "element": "O",
                        "occu": 1
                    }
                ],
                "abc": [
                    0.60455502,
                    0.19724188,
                    0.12793401
                ],
                "xyz": [
                    -0.7463759866720787,
                    1.429940889168066,
                    3.846577080377435
                ],
                "label": "O",
                "properties": {}
            }
        ]
    },
    "spacegroup": {
        "source": "spglib",
        "symbol": "I4_1/a",
        "number": 88,
        "point_group": "4/m",
        "crystal_system": "tetragonal",
        "hall": "I 4bw -1bw"
    },
    "dielectric": {
        "epsilon_ionic": [
            [
                4.58679152,
                -8.448e-05,
                -1e-08
            ],
            [
                -8.448e-05,
                4.58612471,
                -0.0
            ],
            [
                -1e-08,
                -0.0,
                3.52579375
            ]
        ],
        "epsilon_ionic_avg": 4.2329033266666665,
        "epsilon_ionic_eig": [
            4.58680205651309,
            4.58611417348691,
            3.525793749999999
        ],
        "epsilon_electronic": [
            [
                4.31212783,
                2.4e-06,
                0.0
            ],
            [
                -2.4e-06,
                4.31212783,
                0.0
            ],
            [
                0.0,
                -0.0,
                4.45710173
            ]
        ],
        "epsilon_electronic_avg": 4.360452463333333,
        "epsilon_electronic_eig": [
            4.31212783,
            4.31212783,
            4.45710173
        ]
    },
    "phonon": {
        "lowest_freq": -0.0771551484614528,
        "frequency": [
            -0.0771551484614528,
            -0.0771551484614528,
            -0.05019999403227652,
            1.893046493135036,
            2.15453630806109,
            2.15453630806109,
            2.3881811246928075,
            2.3881811246928075,
            2.6499589064864795,
            2.6499589064864795,
            2.704943141508887,
            2.962953848410745,
            3.0256511753003226,
            3.0256511753003226,
            4.845584168918759,
            5.964734212156213,
            5.964734212156213,
            6.587597110381488,
            7.21302071238166,
            8.01936449043396,
            8.01936449043396,
            8.741178902847528,
            9.435707236099706,
            10.900507905166137,
            10.908166644803616,
            10.916819310877822,
            10.916819310877822,
            11.34278316729498,
            25.50535136701353,
            25.678033661314412,
            25.678033661314412,
            25.871728509878643,
            25.871728509878643,
            26.737765750884314,
            27.639814373361137,
            27.85937775217735
        ]
    },
    "born_effective_charge": {
        "avg_abs_trace": 1.8785016666666667,
        "tensors": [
            [
                [
                    3.89757,
                    -0.24367,
                    0.00106
                ],
                [
                    0.24347,
                    3.8975,
                    7e-05
                ],
                [
                    0.0,
                    0.0,
                    4.59148
                ]
            ],
            [
                [
                    3.89757,
                    -0.24367,
                    -0.00106
                ],
                [
                    0.24347,
                    3.8975,
                    -7e-05
                ],
                [
                    0.0,
                    0.0,
                    4.59148
                ]
            ],
            [
                [
                    1.54221,
                    0.09044,
                    -4e-05
                ],
                [
                    -0.09044,
                    1.54208,
                    2e-05
                ],
                [
                    0.0,
                    0.0,
                    1.43567
                ]
            ],
            [
                [
                    1.54221,
                    0.09044,
                    4e-05
                ],
                [
                    -0.09044,
                    1.54208,
                    -2e-05
                ],
                [
                    0.0,
                    0.0,
                    1.43567
                ]
            ],
            [
                [
                    -1.13647,
                    -0.59023,
                    0.69824
                ],
                [
                    -0.66737,
                    -1.58297,
                    0.72386
                ],
                [
                    0.61199,
                    0.77458,
                    -1.50685
                ]
            ],
            [
                [
                    -1.58355,
                    0.66764,
                    0.72419
                ],
                [
                    0.59072,
                    -1.13662,
                    -0.69861
                ],
                [
                    0.77458,
                    -0.61199,
                    -1.50685
                ]
            ],
            [
                [
                    -1.58273,
                    0.66709,
                    -0.72347
                ],
                [
                    0.59093,
                    -1.13675,
                    0.6985
                ],
                [
                    -0.77458,
                    0.61199,
                    -1.50685
                ]
            ],
            [
                [
                    -1.13703,
                    -0.59127,
                    -0.69883
                ],
                [
                    -0.6673,
                    -1.58324,
                    -0.72381
                ],
                [
                    -0.61199,
                    -0.77458,
                    -1.50685
                ]
            ],
            [
                [
                    -1.13647,
                    -0.59023,
                    -0.69824
                ],
                [
                    -0.66737,
                    -1.58297,
                    -0.72386
                ],
                [
                    -0.612,
                    -0.77469,
                    -1.50673
                ]
            ],
            [
                [
                    -1.58355,
                    0.66764,
                    -0.72419
                ],
                [
                    0.59072,
                    -1.13662,
                    0.69861
                ],
                [
                    -0.77469,
                    0.612,
                    -1.50673
                ]
            ],
            [
                [
                    -1.58273,
                    0.66709,
                    0.72347
                ],
                [
                    0.59093,
                    -1.13675,
                    -0.6985
                ],
                [
                    0.77469,
                    -0.612,
                    -1.50673
                ]
            ],
            [
                [
                    -1.13703,
                    -0.59127,
                    0.69883
                ],
                [
                    -0.6673,
                    -1.58324,
                    0.72381
                ],
                [
                    0.612,
                    0.77469,
                    -1.50673
                ]
            ]
        ]
    },
    "band_gap": 2.7483,
    "is_direct": false,
    "formula": "ReAgO4"
}