{
    "mp_id": "mp-755026",
    "nelements": 3,
    "nsites": 22,
    "elements": [
        "La",
        "O",
        "Pt"
    ],
    "structure": {
        "@module": "pymatgen.core.structure",
        "@class": "Structure",
        "charge": null,
        "lattice": {
            "matrix": [
                [
                    0.0,
                    5.22696302,
                    5.22696302
                ],
                [
                    5.22696302,
                    0.0,
                    5.22696302
                ],
                [
                    5.22696302,
                    5.22696302,
                    0.0
                ]
            ],
            "a": 7.392041992906632,
            "b": 7.392041992906632,
            "c": 7.392041992906632,
            "alpha": 60.00000000000001,
            "beta": 60.00000000000001,
            "gamma": 60.00000000000001,
            "volume": 285.61320210803365
        },
        "sites": [
            {
                "species": [
                    {
                        "element": "La",
                        "occu": 1
                    }
                ],
                "abc": [
                    0.125,
                    0.625,
                    0.625
                ],
                "xyz": [
                    6.533703775,
                    3.920222265,
                    3.920222265
                ],
                "label": "La",
                "properties": {}
            },
            {
                "species": [
                    {
                        "element": "La",
                        "occu": 1
                    }
                ],
                "abc": [
                    0.625,
                    0.625,
                    0.625
                ],
                "xyz": [
                    6.533703775,
                    6.533703775,
                    6.533703775
                ],
                "label": "La",
                "properties": {}
            },
            {
                "species": [
                    {
                        "element": "La",
                        "occu": 1
                    }
                ],
                "abc": [
                    0.625,
                    0.125,
                    0.625
                ],
                "xyz": [
                    3.920222265,
                    6.533703775,
                    3.920222265
                ],
                "label": "La",
                "properties": {}
            },
            {
                "species": [
                    {
                        "element": "La",
                        "occu": 1
                    }
                ],
                "abc": [
                    0.625,
                    0.625,
                    0.125
                ],
                "xyz": [
                    3.920222265,
                    3.920222265,
                    6.533703775
                ],
                "label": "La",
                "properties": {}
            },
            {
                "species": [
                    {
                        "element": "Pt",
                        "occu": 1
                    }
                ],
                "abc": [
                    0.125,
                    0.125,
                    0.625
                ],
                "xyz": [
                    3.920222265,
                    3.920222265,
                    1.306740755
                ],
                "label": "Pt",
                "properties": {}
            },
            {
                "species": [
                    {
                        "element": "Pt",
                        "occu": 1
                    }
                ],
                "abc": [
                    0.125,
                    0.125,
                    0.125
                ],
                "xyz": [
                    1.306740755,
                    1.306740755,
                    1.306740755
                ],
                "label": "Pt",
                "properties": {}
            },
            {
                "species": [
                    {
                        "element": "Pt",
                        "occu": 1
                    }
                ],
                "abc": [
                    0.125,
                    0.625,
                    0.125
                ],
                "xyz": [
                    3.920222265,
                    1.306740755,
                    3.920222265
                ],
                "label": "Pt",
                "properties": {}
            },
            {
                "species": [
                    {
                        "element": "Pt",
                        "occu": 1
                    }
                ],
                "abc": [
                    0.625,
                    0.125,
                    0.125
                ],
                "xyz": [
                    1.306740755,
                    3.920222265,
                    3.920222265
                ],
                "label": "Pt",
                "properties": {}
            },
            {
                "species": [
                    {
                        "element": "O",
                        "occu": 1
                    }
                ],
                "abc": [
                    0.20638668,
                    0.79361332,
                    0.79361332
                ],
                "xyz": [
                    8.296374951638853,
                    5.22696302,
                    5.22696302
                ],
                "label": "O",
                "properties": {}
            },
            {
                "species": [
                    {
                        "element": "O",
                        "occu": 1
                    }
                ],
                "abc": [
                    0.20638668,
                    0.20638668,
                    0.79361332
                ],
                "xyz": [
                    5.22696302,
                    5.22696302,
                    2.157551088361147
                ],
                "label": "O",
                "properties": {}
            },
            {
                "species": [
                    {
                        "element": "O",
                        "occu": 1
                    }
                ],
                "abc": [
                    0.79361332,
                    0.20638668,
                    0.79361332
                ],
                "xyz": [
                    5.22696302,
                    8.296374951638853,
                    5.22696302
                ],
                "label": "O",
                "properties": {}
            },
            {
                "species": [
                    {
                        "element": "O",
                        "occu": 1
                    }
                ],
                "abc": [
                    0.5,
                    0.5,
                    0.5
                ],
                "xyz": [
                    5.22696302,
                    5.22696302,
                    5.22696302
                ],
                "label": "O",
                "properties": {}
            },
            {
                "species": [
                    {
                        "element": "O",
                        "occu": 1
                    }
                ],
                "abc": [
                    0.20638668,
                    0.79361332,
                    0.20638668
                ],
                "xyz": [
                    5.22696302,
                    2.157551088361147,
                    5.22696302
                ],
                "label": "O",
                "properties": {}
            },
            {
                "species": [
                    {
                        "element": "O",
                        "occu": 1
                    }
                ],
                "abc": [
                    0.45638668,
                    0.04361332,
                    0.04361332
                ],
                "xyz": [
                    0.4559304216388528,
                    2.61348151,
                    2.61348151
                ],
                "label": "O",
                "properties": {}
            },
            {
                "species": [
                    {
                        "element": "O",
                        "occu": 1
                    }
                ],
                "abc": [
                    0.79361332,
                    0.20638668,
                    0.20638668
                ],
                "xyz": [
                    2.157551088361147,
                    5.22696302,
                    5.22696302
                ],
                "label": "O",
                "properties": {}
            },
            {
                "species": [
                    {
                        "element": "O",
                        "occu": 1
                    }
                ],
                "abc": [
                    0.04361332,
                    0.45638668,
                    0.04361332
                ],
                "xyz": [
                    2.61348151,
                    0.4559304216388528,
                    2.61348151
                ],
                "label": "O",
                "properties": {}
            },
            {
                "species": [
                    {
                        "element": "O",
                        "occu": 1
                    }
                ],
                "abc": [
                    0.75,
                    0.75,
                    0.75
                ],
                "xyz": [
                    7.840444530000001,
                    7.840444530000001,
                    7.840444530000001
                ],
                "label": "O",
                "properties": {}
            },
            {
                "species": [
                    {
                        "element": "O",
                        "occu": 1
                    }
                ],
                "abc": [
                    0.45638668,
                    0.04361332,
                    0.45638668
                ],
                "xyz": [
                    2.61348151,
                    4.771032598361147,
                    2.61348151
                ],
                "label": "O",
                "properties": {}
            },
            {
                "species": [
                    {
                        "element": "O",
                        "occu": 1
                    }
                ],
                "abc": [
                    0.04361332,
                    0.04361332,
                    0.45638668
                ],
                "xyz": [
                    2.61348151,
                    2.61348151,
                    0.4559304216388528
                ],
                "label": "O",
                "properties": {}
            },
            {
                "species": [
                    {
                        "element": "O",
                        "occu": 1
                    }
                ],
                "abc": [
                    0.45638668,
                    0.45638668,
                    0.04361332
                ],
                "xyz": [
                    2.61348151,
                    2.61348151,
                    4.771032598361147
                ],
                "label": "O",
                "properties": {}
            },
            {
                "species": [
                    {
                        "element": "O",
                        "occu": 1
                    }
                ],
                "abc": [
                    0.04361332,
                    0.45638668,
                    0.45638668
                ],
                "xyz": [
                    4.771032598361147,
                    2.61348151,
                    2.61348151
                ],
                "label": "O",
                "properties": {}
            },
            {
                "species": [
                    {
                        "element": "O",
                        "occu": 1
                    }
                ],
                "abc": [
                    0.79361332,
                    0.79361332,
                    0.20638668
                ],
                "xyz": [
                    5.22696302,
                    5.22696302,
                    8.296374951638853
                ],
                "label": "O",
                "properties": {}
            }
        ]
    },
    "spacegroup": {
        "source": "spglib",
        "symbol": "Fd-3m",
        "number": 227,
        "point_group": "m-3m",
        "crystal_system": "cubic",
        "hall": "F 4d 2 3 -1d"
    },
    "dielectric": {
        "epsilon_ionic": [
            [
                8.80073394,
                -0.0,
                -0.0
            ],
            [
                -0.0,
                8.79770406,
                -0.0
            ],
            [
                -0.0,
                -0.0,
                8.79990762
            ]
        ],
        "epsilon_ionic_avg": 8.79944854,
        "epsilon_ionic_eig": [
            8.80073394,
            8.79770406,
            8.79990762
        ],
        "epsilon_electronic": [
            [
                6.95074992,
                0.0,
                0.0
            ],
            [
                0.0,
                6.95074992,
                0.0
            ],
            [
                0.0,
                0.0,
                6.95074992
            ]
        ],
        "epsilon_electronic_avg": 6.95074992,
        "epsilon_electronic_eig": [
            6.95074992,
            6.95074992,
            6.95074992
        ]
    },
    "phonon": {
        "lowest_freq": -0.058091362379045816,
        "frequency": [
            -0.058091362379045816,
            -0.058091362379045816,
            -0.058091362379045816,
            1.8741222911632978,
            1.8741222911632978,
            1.8741222911632978,
            3.0233163880020433,
            3.0233163880020433,
            3.0233163880020433,
            3.232864993624405,
            3.232864993624405,
            4.4006459959399296,
            4.4006459959399296,
            4.4006459959399296,
            4.696808528005244,
            4.696808528005244,
            4.696808528005244,
            5.888700247985392,
            5.888700247985392,
            5.888700247985392,
            6.044297064494819,
            6.044297064494819,
            6.190760036269997,
            6.4749423585229335,
            6.4749423585229335,
            6.4749423585229335,
            8.595260369230651,
            8.595260369230651,
            8.595260369230651,
            8.651224046588961,
            8.651224046588961,
            8.651224046588961,
            8.830201756355601,
            9.14581842115938,
            9.14581842115938,
            9.14581842115938,
            11.9128570892836,
            11.9128570892836,
            11.9128570892836,
            12.56073038689828,
            12.56073038689828,
            13.012283482675798,
            13.012283482675798,
            13.012283482675798,
            14.834956096839514,
            14.95031329404149,
            15.453105185734456,
            15.453105185734456,
            15.453105185734456,
            15.94831301614436,
            15.94831301614436,
            16.020595465946933,
            16.020595465946933,
            16.020595465946933,
            16.75135308079483,
            16.75135308079483,
            16.75135308079483,
            17.28885716073537,
            17.28885716073537,
            17.28885716073537,
            17.971145205048213,
            17.971145205048213,
            17.971145205048213,
            18.712236862431325,
            18.712236862431325,
            18.712236862431325
        ]
    },
    "born_effective_charge": {
        "avg_abs_trace": 2.4856469696969694,
        "tensors": [
            [
                [
                    4.22371,
                    -0.1534,
                    -0.1534
                ],
                [
                    -0.15338,
                    4.22283,
                    0.15338
                ],
                [
                    -0.15342,
                    0.15342,
                    4.22339
                ]
            ],
            [
                [
                    4.22371,
                    0.1534,
                    0.1534
                ],
                [
                    0.15338,
                    4.22283,
                    0.15338
                ],
                [
                    0.15342,
                    0.15342,
                    4.22339
                ]
            ],
            [
                [
                    4.22371,
                    -0.1534,
                    0.1534
                ],
                [
                    -0.15338,
                    4.22283,
                    -0.15338
                ],
                [
                    0.15342,
                    -0.15342,
                    4.22339
                ]
            ],
            [
                [
                    4.22371,
                    0.1534,
                    -0.1534
                ],
                [
                    0.15338,
                    4.22283,
                    -0.15338
                ],
                [
                    -0.15342,
                    -0.15342,
                    4.22339
                ]
            ],
            [
                [
                    2.61237,
                    -0.78105,
                    0.78105
                ],
                [
                    -0.78102,
                    2.61245,
                    0.78102
                ],
                [
                    0.7808,
                    0.7808,
                    2.61183
                ]
            ],
            [
                [
                    2.61237,
                    -0.78105,
                    -0.78105
                ],
                [
                    -0.78102,
                    2.61245,
                    -0.78102
                ],
                [
                    -0.7808,
                    -0.7808,
                    2.61183
                ]
            ],
            [
                [
                    2.61237,
                    0.78105,
                    -0.78105
                ],
                [
                    0.78102,
                    2.61245,
                    0.78102
                ],
                [
                    -0.7808,
                    0.7808,
                    2.61183
                ]
            ],
            [
                [
                    2.61237,
                    0.78105,
                    0.78105
                ],
                [
                    0.78102,
                    2.61245,
                    -0.78102
                ],
                [
                    0.7808,
                    -0.7808,
                    2.61183
                ]
            ],
            [
                [
                    -1.26967,
                    0.0,
                    -0.0
                ],
                [
                    -0.00014,
                    -2.07743,
                    0.79508
                ],
                [
                    -0.00015,
                    0.79521,
                    -2.07754
                ]
            ],
            [
                [
                    -2.07764,
                    -0.79502,
                    8e-05
                ],
                [
                    -0.79508,
                    -2.07743,
                    0.00014
                ],
                [
                    0.0,
                    0.0,
                    -1.26985
                ]
            ],
            [
                [
                    -2.07764,
                    -8e-05,
                    0.79502
                ],
                [
                    0.0,
                    -1.26965,
                    0.0
                ],
                [
                    0.79521,
                    -0.00015,
                    -2.07754
                ]
            ],
            [
                [
                    -2.82198,
                    0.0,
                    -0.0
                ],
                [
                    0.0,
                    -2.82141,
                    -0.0
                ],
                [
                    0.0,
                    0.0,
                    -2.82069
                ]
            ],
            [
                [
                    -2.07764,
                    8e-05,
                    -0.79502
                ],
                [
                    0.0,
                    -1.26978,
                    0.0
                ],
                [
                    -0.79521,
                    0.00015,
                    -2.07754
                ]
            ],
            [
                [
                    -1.26967,
                    0.0,
                    -0.0
                ],
                [
                    -0.00014,
                    -2.07743,
                    -0.79508
                ],
                [
                    -0.00015,
                    -0.79521,
                    -2.07754
                ]
            ],
            [
                [
                    -1.26998,
                    0.0,
                    -0.0
                ],
                [
                    0.00014,
                    -2.07743,
                    -0.79508
                ],
                [
                    0.00015,
                    -0.79521,
                    -2.07754
                ]
            ],
            [
                [
                    -2.07764,
                    -8e-05,
                    -0.79502
                ],
                [
                    0.0,
                    -1.26965,
                    0.0
                ],
                [
                    -0.79521,
                    -0.00015,
                    -2.07754
                ]
            ],
            [
                [
                    -2.82198,
                    0.0,
                    -0.0
                ],
                [
                    0.0,
                    -2.82141,
                    0.0
                ],
                [
                    0.0,
                    0.0,
                    -2.82069
                ]
            ],
            [
                [
                    -2.07764,
                    8e-05,
                    0.79502
                ],
                [
                    0.0,
                    -1.26978,
                    0.0
                ],
                [
                    0.79521,
                    0.00015,
                    -2.07754
                ]
            ],
            [
                [
                    -2.07764,
                    -0.79502,
                    -8e-05
                ],
                [
                    -0.79508,
                    -2.07743,
                    -0.00014
                ],
                [
                    0.0,
                    0.0,
                    -1.26974
                ]
            ],
            [
                [
                    -2.07764,
                    0.79502,
                    8e-05
                ],
                [
                    0.79508,
                    -2.07743,
                    0.00014
                ],
                [
                    0.0,
                    0.0,
                    -1.26985
                ]
            ],
            [
                [
                    -1.26998,
                    0.0,
                    -0.0
                ],
                [
                    0.00014,
                    -2.07743,
                    0.79508
                ],
                [
                    0.00015,
                    0.79521,
                    -2.07754
                ]
            ],
            [
                [
                    -2.07764,
                    0.79502,
                    -8e-05
                ],
                [
                    0.79508,
                    -2.07743,
                    -0.00014
                ],
                [
                    0.0,
                    0.0,
                    -1.26974
                ]
            ]
        ]
    },
    "band_gap": 1.3228999999999997,
    "is_direct": false,
    "formula": "La2Pt2O7"
}