{
    "mp_id": "mp-766173",
    "nelements": 3,
    "nsites": 28,
    "elements": [
        "O",
        "Rh",
        "Sr"
    ],
    "structure": {
        "@module": "pymatgen.core.structure",
        "@class": "Structure",
        "charge": null,
        "lattice": {
            "matrix": [
                [
                    6.11971267,
                    0.0,
                    0.0
                ],
                [
                    0.0,
                    11.27723431,
                    0.0
                ],
                [
                    0.0,
                    0.0,
                    5.3067023
                ]
            ],
            "a": 6.11971267,
            "b": 11.27723431,
            "c": 5.3067023,
            "alpha": 90.0,
            "beta": 90.0,
            "gamma": 90.0,
            "volume": 366.23374729078523
        },
        "sites": [
            {
                "species": [
                    {
                        "element": "Sr",
                        "occu": 1
                    }
                ],
                "abc": [
                    0.0,
                    0.5,
                    0.14301238
                ],
                "xyz": [
                    0.0,
                    5.638617155,
                    0.758924125874474
                ],
                "label": "Sr",
                "properties": {}
            },
            {
                "species": [
                    {
                        "element": "Sr",
                        "occu": 1
                    }
                ],
                "abc": [
                    0.0,
                    0.0,
                    0.46395856
                ],
                "xyz": [
                    0.0,
                    0.0,
                    2.4620899574566883
                ],
                "label": "Sr",
                "properties": {}
            },
            {
                "species": [
                    {
                        "element": "Sr",
                        "occu": 1
                    }
                ],
                "abc": [
                    0.5,
                    0.5,
                    0.53604144
                ],
                "xyz": [
                    3.059856335,
                    5.638617155,
                    2.844612342543312
                ],
                "label": "Sr",
                "properties": {}
            },
            {
                "species": [
                    {
                        "element": "Sr",
                        "occu": 1
                    }
                ],
                "abc": [
                    0.5,
                    0.0,
                    0.85698762
                ],
                "xyz": [
                    3.059856335,
                    0.0,
                    4.5477781741255265
                ],
                "label": "Sr",
                "properties": {}
            },
            {
                "species": [
                    {
                        "element": "Rh",
                        "occu": 1
                    }
                ],
                "abc": [
                    0.0,
                    0.74478724,
                    0.5019203
                ],
                "xyz": [
                    0.0,
                    8.399140216578205,
                    2.66354161042669
                ],
                "label": "Rh",
                "properties": {}
            },
            {
                "species": [
                    {
                        "element": "Rh",
                        "occu": 1
                    }
                ],
                "abc": [
                    0.0,
                    0.25521276,
                    0.5019203
                ],
                "xyz": [
                    0.0,
                    2.8780940934217956,
                    2.66354161042669
                ],
                "label": "Rh",
                "properties": {}
            },
            {
                "species": [
                    {
                        "element": "Rh",
                        "occu": 1
                    }
                ],
                "abc": [
                    0.75,
                    0.75,
                    0.0
                ],
                "xyz": [
                    4.589784502500001,
                    8.457925732500001,
                    0.0
                ],
                "label": "Rh",
                "properties": {}
            },
            {
                "species": [
                    {
                        "element": "Rh",
                        "occu": 1
                    }
                ],
                "abc": [
                    0.75,
                    0.25,
                    0.0
                ],
                "xyz": [
                    4.589784502500001,
                    2.8193085775,
                    0.0
                ],
                "label": "Rh",
                "properties": {}
            },
            {
                "species": [
                    {
                        "element": "Rh",
                        "occu": 1
                    }
                ],
                "abc": [
                    0.5,
                    0.75521276,
                    0.4980797
                ],
                "xyz": [
                    3.059856335,
                    8.516711248421796,
                    2.6431606895733104
                ],
                "label": "Rh",
                "properties": {}
            },
            {
                "species": [
                    {
                        "element": "Rh",
                        "occu": 1
                    }
                ],
                "abc": [
                    0.5,
                    0.24478724,
                    0.4980797
                ],
                "xyz": [
                    3.059856335,
                    2.7605230615782044,
                    2.6431606895733104
                ],
                "label": "Rh",
                "properties": {}
            },
            {
                "species": [
                    {
                        "element": "Rh",
                        "occu": 1
                    }
                ],
                "abc": [
                    0.25,
                    0.25,
                    0.0
                ],
                "xyz": [
                    1.5299281675,
                    2.8193085775,
                    0.0
                ],
                "label": "Rh",
                "properties": {}
            },
            {
                "species": [
                    {
                        "element": "Rh",
                        "occu": 1
                    }
                ],
                "abc": [
                    0.25,
                    0.75,
                    0.0
                ],
                "xyz": [
                    1.5299281675,
                    8.457925732500001,
                    0.0
                ],
                "label": "Rh",
                "properties": {}
            },
            {
                "species": [
                    {
                        "element": "O",
                        "occu": 1
                    }
                ],
                "abc": [
                    0.0,
                    0.16330242,
                    0.17032994
                ],
                "xyz": [
                    0.0,
                    1.8415996537300303,
                    0.9038902843568621
                ],
                "label": "O",
                "properties": {}
            },
            {
                "species": [
                    {
                        "element": "O",
                        "occu": 1
                    }
                ],
                "abc": [
                    0.0,
                    0.65739835,
                    0.83514205
                ],
                "xyz": [
                    0.0,
                    7.413635227957389,
                    4.431850237561715
                ],
                "label": "O",
                "properties": {}
            },
            {
                "species": [
                    {
                        "element": "O",
                        "occu": 1
                    }
                ],
                "abc": [
                    0.0,
                    0.34260165,
                    0.83514205
                ],
                "xyz": [
                    0.0,
                    3.8635990820426116,
                    4.431850237561715
                ],
                "label": "O",
                "properties": {}
            },
            {
                "species": [
                    {
                        "element": "O",
                        "occu": 1
                    }
                ],
                "abc": [
                    0.0,
                    0.83669758,
                    0.17032994
                ],
                "xyz": [
                    0.0,
                    9.43563465626997,
                    0.9038902843568621
                ],
                "label": "O",
                "properties": {}
            },
            {
                "species": [
                    {
                        "element": "O",
                        "occu": 1
                    }
                ],
                "abc": [
                    0.75367469,
                    0.15601981,
                    0.66583194
                ],
                "xyz": [
                    4.612272549451323,
                    1.7594719543716812,
                    3.5333718874114624
                ],
                "label": "O",
                "properties": {}
            },
            {
                "species": [
                    {
                        "element": "O",
                        "occu": 1
                    }
                ],
                "abc": [
                    0.74632531,
                    0.34398019,
                    0.33416806
                ],
                "xyz": [
                    4.567296455548678,
                    3.8791452006283196,
                    1.773330412588538
                ],
                "label": "O",
                "properties": {}
            },
            {
                "species": [
                    {
                        "element": "O",
                        "occu": 1
                    }
                ],
                "abc": [
                    0.74632531,
                    0.65601981,
                    0.33416806
                ],
                "xyz": [
                    4.567296455548678,
                    7.398089109371681,
                    1.773330412588538
                ],
                "label": "O",
                "properties": {}
            },
            {
                "species": [
                    {
                        "element": "O",
                        "occu": 1
                    }
                ],
                "abc": [
                    0.75367469,
                    0.84398019,
                    0.66583194
                ],
                "xyz": [
                    4.612272549451323,
                    9.517762355628319,
                    3.5333718874114624
                ],
                "label": "O",
                "properties": {}
            },
            {
                "species": [
                    {
                        "element": "O",
                        "occu": 1
                    }
                ],
                "abc": [
                    0.5,
                    0.15739835,
                    0.16485795
                ],
                "xyz": [
                    3.059856335,
                    1.7750180729573886,
                    0.8748520624382851
                ],
                "label": "O",
                "properties": {}
            },
            {
                "species": [
                    {
                        "element": "O",
                        "occu": 1
                    }
                ],
                "abc": [
                    0.5,
                    0.84260165,
                    0.16485795
                ],
                "xyz": [
                    3.059856335,
                    9.502216237042612,
                    0.8748520624382851
                ],
                "label": "O",
                "properties": {}
            },
            {
                "species": [
                    {
                        "element": "O",
                        "occu": 1
                    }
                ],
                "abc": [
                    0.5,
                    0.33669758,
                    0.82967006
                ],
                "xyz": [
                    3.059856335,
                    3.79701750126997,
                    4.402812015643138
                ],
                "label": "O",
                "properties": {}
            },
            {
                "species": [
                    {
                        "element": "O",
                        "occu": 1
                    }
                ],
                "abc": [
                    0.5,
                    0.66330242,
                    0.82967006
                ],
                "xyz": [
                    3.059856335,
                    7.48021680873003,
                    4.402812015643138
                ],
                "label": "O",
                "properties": {}
            },
            {
                "species": [
                    {
                        "element": "O",
                        "occu": 1
                    }
                ],
                "abc": [
                    0.24632531,
                    0.15601981,
                    0.66583194
                ],
                "xyz": [
                    1.5074401205486776,
                    1.7594719543716812,
                    3.5333718874114624
                ],
                "label": "O",
                "properties": {}
            },
            {
                "species": [
                    {
                        "element": "O",
                        "occu": 1
                    }
                ],
                "abc": [
                    0.25367469,
                    0.34398019,
                    0.33416806
                ],
                "xyz": [
                    1.5524162144513223,
                    3.8791452006283196,
                    1.773330412588538
                ],
                "label": "O",
                "properties": {}
            },
            {
                "species": [
                    {
                        "element": "O",
                        "occu": 1
                    }
                ],
                "abc": [
                    0.25367469,
                    0.65601981,
                    0.33416806
                ],
                "xyz": [
                    1.5524162144513223,
                    7.398089109371681,
                    1.773330412588538
                ],
                "label": "O",
                "properties": {}
            },
            {
                "species": [
                    {
                        "element": "O",
                        "occu": 1
                    }
                ],
                "abc": [
                    0.24632531,
                    0.84398019,
                    0.66583194
                ],
                "xyz": [
                    1.5074401205486776,
                    9.517762355628319,
                    3.5333718874114624
                ],
                "label": "O",
                "properties": {}
            }
        ]
    },
    "spacegroup": {
        "source": "spglib",
        "symbol": "Pmmn",
        "number": 59,
        "point_group": "mmm",
        "crystal_system": "orthorhombic",
        "hall": "P 2 2ab -1ab"
    },
    "dielectric": {
        "epsilon_ionic": [
            [
                4.666774,
                -0.0,
                -1e-08
            ],
            [
                -0.0,
                4.55100131,
                0.0
            ],
            [
                -1e-08,
                0.0,
                3.51892961
            ]
        ],
        "epsilon_ionic_avg": 4.245568306666667,
        "epsilon_ionic_eig": [
            4.666774,
            3.51892961,
            4.55100131
        ],
        "epsilon_electronic": [
            [
                6.32473398,
                0.0,
                0.0
            ],
            [
                0.0,
                4.17861812,
                0.0
            ],
            [
                0.0,
                0.0,
                6.37251426
            ]
        ],
        "epsilon_electronic_avg": 5.625288786666666,
        "epsilon_electronic_eig": [
            6.32473398,
            4.17861812,
            6.37251426
        ]
    },
    "phonon": {
        "lowest_freq": -0.06479603405075351,
        "frequency": [
            -0.06479603405075351,
            -0.019048419195041577,
            -0.014527901075258753,
            1.230749093054648,
            1.8577684310743865,
            2.6355639512774687,
            2.91348157354059,
            3.186732256169182,
            3.609716296823361,
            3.827364979420281,
            3.945138871317078,
            4.080976329507943,
            4.237282575105022,
            4.308047942419625,
            4.368055283444609,
            4.5435006002042675,
            4.964390927056906,
            5.42616222591465,
            5.797215385660263,
            5.894340493181648,
            5.921627997818065,
            6.311781148322041,
            6.634950475097872,
            6.6894239068326895,
            6.839826202873141,
            6.855305906369796,
            7.262235644973978,
            7.265231153743935,
            7.3924443054529565,
            7.494004667266713,
            9.080501628293973,
            9.109379285039847,
            9.391237185247281,
            9.41254357789705,
            10.178403192563366,
            10.2051854864253,
            12.421856380151276,
            12.604106345239911,
            12.73620566137973,
            12.937222204712645,
            13.070906703720363,
            13.102953498963894,
            13.250835228018865,
            13.343405786602322,
            13.454801216442634,
            13.505880829880262,
            13.593978399186149,
            13.647624615052779,
            13.969696893334913,
            14.01979471344976,
            14.037691162170786,
            14.301615754776307,
            14.31766200184277,
            14.440654830229377,
            14.482681927622444,
            14.502668144648327,
            14.556887830269803,
            14.696728354026865,
            14.795867109863044,
            14.856055587901855,
            14.93917422160136,
            15.016092886192824,
            15.211331776010532,
            15.298911795835366,
            15.324951092827522,
            15.385535040252918,
            15.553044242092128,
            15.618032070238312,
            15.660230776216354,
            15.951176374237617,
            16.003497274942088,
            16.325298359399234,
            16.415783212521124,
            16.6188360083224,
            16.656650747498755,
            16.770744711401758,
            16.905711830950622,
            16.953567348215216,
            16.9591524270619,
            17.174965147842563,
            17.33919949656633,
            17.447140801543064,
            18.162773493064748,
            18.551395934020505
        ]
    },
    "born_effective_charge": {
        "avg_abs_trace": 2.1691953571428573,
        "tensors": [
            [
                [
                    2.01486,
                    -0.0,
                    -0.0
                ],
                [
                    0.0,
                    4.20482,
                    9e-05
                ],
                [
                    0.0,
                    -0.0,
                    2.16314
                ]
            ],
            [
                [
                    1.95719,
                    -0.0,
                    8e-05
                ],
                [
                    0.0,
                    4.24327,
                    0.0
                ],
                [
                    0.0,
                    -0.0,
                    2.00776
                ]
            ],
            [
                [
                    1.95719,
                    -0.0,
                    -8e-05
                ],
                [
                    0.0,
                    4.24327,
                    -0.0
                ],
                [
                    0.0,
                    -0.0,
                    2.00786
                ]
            ],
            [
                [
                    2.01486,
                    -0.0,
                    0.0
                ],
                [
                    0.0,
                    4.20482,
                    -9e-05
                ],
                [
                    0.0,
                    -0.0,
                    2.16333
                ]
            ],
            [
                [
                    3.2114,
                    1e-05,
                    4e-05
                ],
                [
                    0.0,
                    0.71256,
                    -0.01883
                ],
                [
                    0.0,
                    0.01106,
                    3.36637
                ]
            ],
            [
                [
                    3.2114,
                    -1e-05,
                    4e-05
                ],
                [
                    0.0,
                    0.71259,
                    0.01879
                ],
                [
                    0.0,
                    -0.01106,
                    3.36637
                ]
            ],
            [
                [
                    3.30624,
                    -0.0288,
                    0.06038
                ],
                [
                    0.01792,
                    0.72679,
                    0.02916
                ],
                [
                    0.13673,
                    0.02795,
                    3.15757
                ]
            ],
            [
                [
                    3.30624,
                    0.0288,
                    0.06038
                ],
                [
                    -0.01792,
                    0.72679,
                    -0.02916
                ],
                [
                    0.13673,
                    -0.02795,
                    3.15757
                ]
            ],
            [
                [
                    3.2114,
                    -1e-05,
                    -4e-05
                ],
                [
                    0.0,
                    0.71259,
                    -0.01879
                ],
                [
                    0.0,
                    0.01128,
                    3.36641
                ]
            ],
            [
                [
                    3.2114,
                    1e-05,
                    -4e-05
                ],
                [
                    0.0,
                    0.71256,
                    0.01883
                ],
                [
                    0.0,
                    -0.01128,
                    3.36641
                ]
            ],
            [
                [
                    3.30624,
                    -0.0288,
                    -0.06038
                ],
                [
                    0.01792,
                    0.72679,
                    -0.02916
                ],
                [
                    -0.13673,
                    -0.02795,
                    3.15757
                ]
            ],
            [
                [
                    3.30624,
                    0.0288,
                    -0.06038
                ],
                [
                    -0.01792,
                    0.72679,
                    0.02916
                ],
                [
                    -0.13673,
                    0.02795,
                    3.15757
                ]
            ],
            [
                [
                    -1.99464,
                    -0.00039,
                    0.00062
                ],
                [
                    0.0,
                    -1.26269,
                    0.24049
                ],
                [
                    0.0,
                    0.23928,
                    -2.29948
                ]
            ],
            [
                [
                    -2.09475,
                    -0.00029,
                    -0.00051
                ],
                [
                    0.0,
                    -1.32703,
                    0.26499
                ],
                [
                    0.0,
                    0.27453,
                    -2.28918
                ]
            ],
            [
                [
                    -2.09475,
                    0.00029,
                    -0.00051
                ],
                [
                    0.0,
                    -1.32731,
                    -0.26489
                ],
                [
                    0.0,
                    -0.27453,
                    -2.28918
                ]
            ],
            [
                [
                    -1.99464,
                    0.00039,
                    0.00062
                ],
                [
                    0.0,
                    -1.26263,
                    -0.24044
                ],
                [
                    0.0,
                    -0.23928,
                    -2.29948
                ]
            ],
            [
                [
                    -2.20705,
                    -0.09659,
                    0.1515
                ],
                [
                    0.02293,
                    -1.53682,
                    0.00098
                ],
                [
                    0.17211,
                    0.03352,
                    -2.01042
                ]
            ],
            [
                [
                    -2.20723,
                    -0.09622,
                    0.1504
                ],
                [
                    0.02285,
                    -1.53675,
                    0.00091
                ],
                [
                    0.17219,
                    0.03391,
                    -2.01022
                ]
            ],
            [
                [
                    -2.20723,
                    0.09622,
                    0.1504
                ],
                [
                    -0.02293,
                    -1.53682,
                    -0.00098
                ],
                [
                    0.17219,
                    -0.03391,
                    -2.01022
                ]
            ],
            [
                [
                    -2.20705,
                    0.09659,
                    0.1515
                ],
                [
                    -0.02285,
                    -1.53675,
                    -0.00091
                ],
                [
                    0.17211,
                    -0.03352,
                    -2.01042
                ]
            ],
            [
                [
                    -2.09475,
                    -0.00029,
                    0.00051
                ],
                [
                    0.0,
                    -1.32703,
                    -0.26499
                ],
                [
                    0.0,
                    -0.27473,
                    -2.28952
                ]
            ],
            [
                [
                    -2.09475,
                    0.00029,
                    0.00051
                ],
                [
                    0.0,
                    -1.32731,
                    0.26489
                ],
                [
                    0.0,
                    0.27473,
                    -2.28952
                ]
            ],
            [
                [
                    -1.99464,
                    0.00039,
                    -0.00062
                ],
                [
                    0.0,
                    -1.26263,
                    0.24044
                ],
                [
                    0.0,
                    0.23946,
                    -2.29949
                ]
            ],
            [
                [
                    -1.99464,
                    -0.00039,
                    -0.00062
                ],
                [
                    0.0,
                    -1.26269,
                    -0.24049
                ],
                [
                    -0.0,
                    -0.23946,
                    -2.29949
                ]
            ],
            [
                [
                    -2.20723,
                    0.09622,
                    -0.1504
                ],
                [
                    -0.02293,
                    -1.53682,
                    0.00098
                ],
                [
                    -0.17211,
                    0.03352,
                    -2.01042
                ]
            ],
            [
                [
                    -2.20705,
                    0.09659,
                    -0.1515
                ],
                [
                    -0.02285,
                    -1.53675,
                    0.00091
                ],
                [
                    -0.17219,
                    0.03391,
                    -2.01022
                ]
            ],
            [
                [
                    -2.20705,
                    -0.09659,
                    -0.1515
                ],
                [
                    0.02293,
                    -1.53682,
                    -0.00098
                ],
                [
                    -0.17219,
                    -0.03391,
                    -2.01022
                ]
            ],
            [
                [
                    -2.20723,
                    -0.09622,
                    -0.1504
                ],
                [
                    0.02285,
                    -1.53675,
                    -0.00091
                ],
                [
                    -0.17211,
                    -0.03352,
                    -2.01042
                ]
            ]
        ]
    },
    "band_gap": 2.0625,
    "is_direct": false,
    "formula": "Sr(RhO2)2"
}