{
    "mp_id": "mp-755417",
    "nelements": 3,
    "nsites": 22,
    "elements": [
        "B",
        "Ba",
        "O"
    ],
    "structure": {
        "@module": "pymatgen.core.structure",
        "@class": "Structure",
        "charge": null,
        "lattice": {
            "matrix": [
                [
                    4.7512099,
                    2.74311177,
                    4.48366694
                ],
                [
                    -4.7512099,
                    2.74311177,
                    4.48366694
                ],
                [
                    0.0,
                    -5.48622455,
                    4.48366694
                ]
            ],
            "a": 7.085331814771945,
            "b": 7.085331814771945,
            "c": 7.085331964126428,
            "alpha": 84.22211587293778,
            "beta": 84.22211587293778,
            "gamma": 84.22212285742913,
            "volume": 350.616515183404
        },
        "sites": [
            {
                "species": [
                    {
                        "element": "Ba",
                        "occu": 1
                    }
                ],
                "abc": [
                    0.09829948,
                    0.75,
                    0.40170052
                ],
                "xyz": [
                    -3.0963659624591484,
                    0.12316103350111351,
                    5.604583675000001
                ],
                "label": "Ba",
                "properties": {}
            },
            {
                "species": [
                    {
                        "element": "Ba",
                        "occu": 1
                    }
                ],
                "abc": [
                    0.25,
                    0.59829948,
                    0.90170052
                ],
                "xyz": [
                    -1.654843937540852,
                    -2.6199512414988866,
                    7.846417144999999
                ],
                "label": "Ba",
                "properties": {}
            },
            {
                "species": [
                    {
                        "element": "Ba",
                        "occu": 1
                    }
                ],
                "abc": [
                    0.59829948,
                    0.90170052,
                    0.25
                ],
                "xyz": [
                    -1.4415220249182963,
                    2.7431115175,
                    7.846417144999999
                ],
                "label": "Ba",
                "properties": {}
            },
            {
                "species": [
                    {
                        "element": "Ba",
                        "occu": 1
                    }
                ],
                "abc": [
                    0.40170052,
                    0.09829948,
                    0.75
                ],
                "xyz": [
                    1.4415220249182963,
                    -2.7431125275,
                    5.604583675000001
                ],
                "label": "Ba",
                "properties": {}
            },
            {
                "species": [
                    {
                        "element": "Ba",
                        "occu": 1
                    }
                ],
                "abc": [
                    0.75,
                    0.40170052,
                    0.09829948
                ],
                "xyz": [
                    1.6548439375408521,
                    2.619950231498886,
                    5.604583675000001
                ],
                "label": "Ba",
                "properties": {}
            },
            {
                "species": [
                    {
                        "element": "Ba",
                        "occu": 1
                    }
                ],
                "abc": [
                    0.90170052,
                    0.25,
                    0.59829948
                ],
                "xyz": [
                    3.0963659624591484,
                    -0.1231620435011136,
                    7.846417144999999
                ],
                "label": "Ba",
                "properties": {}
            },
            {
                "species": [
                    {
                        "element": "B",
                        "occu": 1
                    }
                ],
                "abc": [
                    0.887026,
                    0.887026,
                    0.887026
                ],
                "xyz": [
                    0.0,
                    -8.958962602889642e-07,
                    11.93138745336132
                ],
                "label": "B",
                "properties": {}
            },
            {
                "species": [
                    {
                        "element": "B",
                        "occu": 1
                    }
                ],
                "abc": [
                    0.612974,
                    0.612974,
                    0.612974
                ],
                "xyz": [
                    0.0,
                    -6.191037402736299e-07,
                    8.24511377663868
                ],
                "label": "B",
                "properties": {}
            },
            {
                "species": [
                    {
                        "element": "B",
                        "occu": 1
                    }
                ],
                "abc": [
                    0.112974,
                    0.112974,
                    0.112974
                ],
                "xyz": [
                    0.0,
                    -1.1410374001208368e-07,
                    1.51961336663868
                ],
                "label": "B",
                "properties": {}
            },
            {
                "species": [
                    {
                        "element": "B",
                        "occu": 1
                    }
                ],
                "abc": [
                    0.387026,
                    0.387026,
                    0.387026
                ],
                "xyz": [
                    0.0,
                    -3.9089625980537335e-07,
                    5.20588704336132
                ],
                "label": "B",
                "properties": {}
            },
            {
                "species": [
                    {
                        "element": "O",
                        "occu": 1
                    }
                ],
                "abc": [
                    0.03171546,
                    0.8926419,
                    0.73745556
                ],
                "xyz": [
                    -4.090442224899756,
                    -1.510231243903871,
                    7.451015649868864
                ],
                "label": "O",
                "properties": {}
            },
            {
                "species": [
                    {
                        "element": "O",
                        "occu": 1
                    }
                ],
                "abc": [
                    0.26254444,
                    0.96828454,
                    0.1073581
                ],
                "xyz": [
                    -3.35311934994699,
                    2.78731081803374,
                    5.999985170131135
                ],
                "label": "O",
                "properties": {}
            },
            {
                "species": [
                    {
                        "element": "O",
                        "occu": 1
                    }
                ],
                "abc": [
                    0.46828454,
                    0.76254444,
                    0.6073581
                ],
                "xyz": [
                    -1.3980905500530096,
                    0.044198543033739046,
                    8.241818640131136
                ],
                "label": "O",
                "properties": {}
            },
            {
                "species": [
                    {
                        "element": "O",
                        "occu": 1
                    }
                ],
                "abc": [
                    0.23745556,
                    0.3926419,
                    0.53171546
                ],
                "xyz": [
                    -0.737322874952766,
                    -1.1886826514934388,
                    5.209182179868865
                ],
                "label": "O",
                "properties": {}
            },
            {
                "species": [
                    {
                        "element": "O",
                        "occu": 1
                    }
                ],
                "abc": [
                    0.1073581,
                    0.26254444,
                    0.96828454
                ],
                "xyz": [
                    -0.737322874952766,
                    -4.2975424035065615,
                    5.999985170131135
                ],
                "label": "O",
                "properties": {}
            },
            {
                "species": [
                    {
                        "element": "O",
                        "occu": 1
                    }
                ],
                "abc": [
                    0.3926419,
                    0.53171546,
                    0.23745556
                ],
                "xyz": [
                    -0.6607676751002443,
                    1.2328810310961291,
                    5.209182179868865
                ],
                "label": "O",
                "properties": {}
            },
            {
                "species": [
                    {
                        "element": "O",
                        "occu": 1
                    }
                ],
                "abc": [
                    0.6073581,
                    0.46828454,
                    0.76254444
                ],
                "xyz": [
                    0.660767675100244,
                    -1.2328820410961292,
                    8.241818640131136
                ],
                "label": "O",
                "properties": {}
            },
            {
                "species": [
                    {
                        "element": "O",
                        "occu": 1
                    }
                ],
                "abc": [
                    0.76254444,
                    0.6073581,
                    0.46828454
                ],
                "xyz": [
                    0.7373228749527656,
                    1.1886816414934387,
                    8.241818640131136
                ],
                "label": "O",
                "properties": {}
            },
            {
                "species": [
                    {
                        "element": "O",
                        "occu": 1
                    }
                ],
                "abc": [
                    0.8926419,
                    0.73745556,
                    0.03171546
                ],
                "xyz": [
                    0.737322874952766,
                    4.297541393506561,
                    7.451015649868864
                ],
                "label": "O",
                "properties": {}
            },
            {
                "species": [
                    {
                        "element": "O",
                        "occu": 1
                    }
                ],
                "abc": [
                    0.53171546,
                    0.23745556,
                    0.3926419
                ],
                "xyz": [
                    1.3980905500530103,
                    -0.044199553033739125,
                    5.209182179868865
                ],
                "label": "O",
                "properties": {}
            },
            {
                "species": [
                    {
                        "element": "O",
                        "occu": 1
                    }
                ],
                "abc": [
                    0.73745556,
                    0.03171546,
                    0.8926419
                ],
                "xyz": [
                    3.3531193499469905,
                    -2.7873118280337397,
                    7.451015649868864
                ],
                "label": "O",
                "properties": {}
            },
            {
                "species": [
                    {
                        "element": "O",
                        "occu": 1
                    }
                ],
                "abc": [
                    0.96828454,
                    0.1073581,
                    0.26254444
                ],
                "xyz": [
                    4.090442224899756,
                    1.510230233903871,
                    5.999985170131135
                ],
                "label": "O",
                "properties": {}
            }
        ]
    },
    "spacegroup": {
        "source": "spglib",
        "symbol": "R-3c",
        "number": 167,
        "point_group": "-3m",
        "crystal_system": "trigonal",
        "hall": "-R 3 2\"c"
    },
    "dielectric": {
        "epsilon_ionic": [
            [
                6.26469837,
                -2e-08,
                -0.0
            ],
            [
                -2e-08,
                6.26470029,
                -2.23e-06
            ],
            [
                -0.0,
                -2.23e-06,
                9.91482042
            ]
        ],
        "epsilon_ionic_avg": 7.481406360000001,
        "epsilon_ionic_eig": [
            6.264698369791689,
            6.264700290206953,
            9.914820420001362
        ],
        "epsilon_electronic": [
            [
                3.57175884,
                -0.0,
                0.0
            ],
            [
                -0.0,
                3.57175787,
                -0.0
            ],
            [
                0.0,
                0.0,
                2.9482851
            ]
        ],
        "epsilon_electronic_avg": 3.3639339366666667,
        "epsilon_electronic_eig": [
            3.57175884,
            3.57175787,
            2.9482851
        ]
    },
    "phonon": {
        "lowest_freq": -0.04940861961265418,
        "frequency": [
            -0.04940861961265418,
            -0.0494086129101354,
            -0.02597901438815999,
            0.21357741905894773,
            0.21357742020326406,
            2.000988152158188,
            2.000988152158188,
            2.7582226368003475,
            2.8145694026568764,
            2.8738046615670143,
            2.9270649154847126,
            2.927065161799836,
            3.603144099985602,
            3.6031441101600543,
            3.8688744943616875,
            3.8688744943616875,
            4.114747280574811,
            4.312210411216136,
            4.482182657854638,
            4.602558940980141,
            4.700463469481727,
            4.700463508477902,
            5.143052473745346,
            5.143052758867995,
            5.309136730202093,
            5.820470482891992,
            5.820470608861256,
            5.83058010046649,
            6.284424574439168,
            6.284425041116974,
            7.283309573289079,
            7.28330972429194,
            7.320307425136286,
            7.320307692229032,
            7.360591273975569,
            7.6377975038521,
            8.0903411933793,
            8.159942039444244,
            8.159942309005123,
            8.397906140668038,
            8.489619504260757,
            8.489619662595382,
            16.52319860980584,
            16.52319883167583,
            16.810712369698877,
            16.810712442390656,
            17.016427618120517,
            17.0164278335595,
            17.231042413943367,
            17.231042413943367,
            20.5146525701875,
            20.961656583705444,
            21.412278309444318,
            21.692165008328768,
            25.63437844807309,
            25.7880433306628,
            25.914904017634388,
            25.936484277806688,
            34.68913085574817,
            34.68913497732933,
            34.79947496331532,
            34.79947619235749,
            35.20628030991762,
            35.206284509795296,
            35.567503454133956,
            35.56750479406564
        ]
    },
    "born_effective_charge": {
        "avg_abs_trace": 2.171194696969697,
        "tensors": [
            [
                [
                    2.84294,
                    -0.02329,
                    0.01696
                ],
                [
                    -0.0233,
                    2.81608,
                    -0.00981
                ],
                [
                    0.00345,
                    -0.002,
                    2.28457
                ]
            ],
            [
                [
                    2.84301,
                    0.02329,
                    -0.01692
                ],
                [
                    0.0233,
                    2.81608,
                    -0.00981
                ],
                [
                    -0.00345,
                    -0.002,
                    2.28457
                ]
            ],
            [
                [
                    2.80267,
                    0.0,
                    -0.0
                ],
                [
                    2e-05,
                    2.85641,
                    0.01956
                ],
                [
                    -1e-05,
                    0.00399,
                    2.28457
                ]
            ],
            [
                [
                    2.80266,
                    0.0,
                    -0.0
                ],
                [
                    -2e-05,
                    2.85641,
                    0.01956
                ],
                [
                    1e-05,
                    0.00399,
                    2.28457
                ]
            ],
            [
                [
                    2.84294,
                    0.02329,
                    -0.01696
                ],
                [
                    0.02327,
                    2.81611,
                    -0.00975
                ],
                [
                    -0.00346,
                    -0.00199,
                    2.28457
                ]
            ],
            [
                [
                    2.84301,
                    -0.02329,
                    0.01692
                ],
                [
                    -0.02327,
                    2.81611,
                    -0.00975
                ],
                [
                    0.00346,
                    -0.00199,
                    2.28457
                ]
            ],
            [
                [
                    2.81398,
                    0.02407,
                    0.0
                ],
                [
                    -0.024,
                    2.81402,
                    1e-05
                ],
                [
                    0.0,
                    -0.0,
                    0.36889
                ]
            ],
            [
                [
                    2.81398,
                    -0.02407,
                    -0.0
                ],
                [
                    0.02415,
                    2.81399,
                    -1e-05
                ],
                [
                    0.0,
                    -0.0,
                    0.36889
                ]
            ],
            [
                [
                    2.81402,
                    0.02408,
                    -0.0
                ],
                [
                    -0.02415,
                    2.81399,
                    -1e-05
                ],
                [
                    0.0,
                    -0.0,
                    0.36889
                ]
            ],
            [
                [
                    2.81402,
                    -0.02408,
                    0.0
                ],
                [
                    0.024,
                    2.81402,
                    1e-05
                ],
                [
                    0.0,
                    -0.0,
                    0.36889
                ]
            ],
            [
                [
                    -2.19683,
                    -0.31846,
                    0.12814
                ],
                [
                    -0.32261,
                    -2.50864,
                    0.21653
                ],
                [
                    0.07963,
                    0.15461,
                    -1.26527
                ]
            ],
            [
                [
                    -2.70831,
                    0.02732,
                    -0.2516
                ],
                [
                    0.02325,
                    -1.99727,
                    0.00272
                ],
                [
                    -0.17374,
                    -0.00832,
                    -1.26523
                ]
            ],
            [
                [
                    -2.70832,
                    -0.02733,
                    0.25152
                ],
                [
                    -0.02325,
                    -1.99727,
                    0.00272
                ],
                [
                    0.17374,
                    -0.00832,
                    -1.26523
                ]
            ],
            [
                [
                    -2.15313,
                    -0.29745,
                    -0.12342
                ],
                [
                    -0.29316,
                    -2.55226,
                    -0.21918
                ],
                [
                    -0.09408,
                    -0.14627,
                    -1.26527
                ]
            ],
            [
                [
                    -2.15313,
                    0.29745,
                    0.12342
                ],
                [
                    0.29325,
                    -2.55254,
                    -0.21924
                ],
                [
                    0.09407,
                    -0.14631,
                    -1.26523
                ]
            ],
            [
                [
                    -2.19687,
                    0.31843,
                    -0.12811
                ],
                [
                    0.32261,
                    -2.50864,
                    0.21653
                ],
                [
                    -0.07963,
                    0.15461,
                    -1.26527
                ]
            ],
            [
                [
                    -2.19683,
                    0.31846,
                    -0.12814
                ],
                [
                    0.32265,
                    -2.50873,
                    0.21647
                ],
                [
                    -0.07967,
                    0.15462,
                    -1.26523
                ]
            ],
            [
                [
                    -2.15314,
                    -0.29733,
                    -0.12345
                ],
                [
                    -0.29325,
                    -2.55254,
                    -0.21924
                ],
                [
                    -0.09407,
                    -0.14631,
                    -1.26523
                ]
            ],
            [
                [
                    -2.15314,
                    0.29733,
                    0.12345
                ],
                [
                    0.29316,
                    -2.55226,
                    -0.21918
                ],
                [
                    0.09408,
                    -0.14627,
                    -1.26527
                ]
            ],
            [
                [
                    -2.70831,
                    -0.02732,
                    0.2516
                ],
                [
                    -0.02305,
                    -1.99717,
                    0.0027
                ],
                [
                    0.17371,
                    -0.00834,
                    -1.26527
                ]
            ],
            [
                [
                    -2.70832,
                    0.02733,
                    -0.25152
                ],
                [
                    0.02305,
                    -1.99717,
                    0.0027
                ],
                [
                    -0.17371,
                    -0.00834,
                    -1.26527
                ]
            ],
            [
                [
                    -2.19687,
                    -0.31843,
                    0.12811
                ],
                [
                    -0.32265,
                    -2.50873,
                    0.21647
                ],
                [
                    0.07967,
                    0.15462,
                    -1.26523
                ]
            ]
        ]
    },
    "band_gap": 4.305999999999999,
    "is_direct": false,
    "formula": "Ba3(BO3)2"
}