{
    "mp_id": "mp-754329",
    "nelements": 3,
    "nsites": 10,
    "elements": [
        "Cd",
        "O",
        "Sn"
    ],
    "structure": {
        "@module": "pymatgen.core.structure",
        "@class": "Structure",
        "charge": null,
        "lattice": {
            "matrix": [
                [
                    2.74667984,
                    1.58579619,
                    4.99934503
                ],
                [
                    -2.74667984,
                    1.58579619,
                    4.99934503
                ],
                [
                    -0.0,
                    -3.17159338,
                    4.99934503
                ]
            ],
            "a": 5.920510993881073,
            "b": 5.920510993881073,
            "c": 5.920511405026218,
            "alpha": 55.28149516624714,
            "beta": 55.28149516624714,
            "gamma": 55.2814921885361,
            "volume": 130.65314320938418
        },
        "sites": [
            {
                "species": [
                    {
                        "element": "Cd",
                        "occu": 1
                    }
                ],
                "abc": [
                    0.36627701,
                    0.36627701,
                    0.36627701
                ],
                "xyz": [
                    0.0,
                    -3.662770100554269e-07,
                    5.493435448640281
                ],
                "label": "Cd",
                "properties": {}
            },
            {
                "species": [
                    {
                        "element": "Cd",
                        "occu": 1
                    }
                ],
                "abc": [
                    0.63372299,
                    0.63372299,
                    0.63372299
                ],
                "xyz": [
                    0.0,
                    -6.337229900843511e-07,
                    9.504599641359718
                ],
                "label": "Cd",
                "properties": {}
            },
            {
                "species": [
                    {
                        "element": "Sn",
                        "occu": 1
                    }
                ],
                "abc": [
                    0.15400405,
                    0.15400405,
                    0.15400405
                ],
                "xyz": [
                    0.0,
                    -1.5400405001253503e-07,
                    2.309758145902115
                ],
                "label": "Sn",
                "properties": {}
            },
            {
                "species": [
                    {
                        "element": "Sn",
                        "occu": 1
                    }
                ],
                "abc": [
                    0.84599595,
                    0.84599595,
                    0.84599595
                ],
                "xyz": [
                    0.0,
                    -8.459959501827541e-07,
                    12.688276944097886
                ],
                "label": "Sn",
                "properties": {}
            },
            {
                "species": [
                    {
                        "element": "O",
                        "occu": 1
                    }
                ],
                "abc": [
                    0.0376916,
                    0.78656195,
                    0.44406021
                ],
                "xyz": [
                    -2.056907093118744,
                    -0.1012802831734354,
                    6.340738092536612
                ],
                "label": "O",
                "properties": {}
            },
            {
                "species": [
                    {
                        "element": "O",
                        "occu": 1
                    }
                ],
                "abc": [
                    0.55593979,
                    0.9623084,
                    0.21343805
                ],
                "xyz": [
                    -1.1161644686958223,
                    1.730693488756287,
                    8.657296997463387
                ],
                "label": "O",
                "properties": {}
            },
            {
                "species": [
                    {
                        "element": "O",
                        "occu": 1
                    }
                ],
                "abc": [
                    0.21343805,
                    0.55593979,
                    0.9623084
                ],
                "xyz": [
                    -0.9407426244229218,
                    -1.8319745036159625,
                    8.657296997463387
                ],
                "label": "O",
                "properties": {}
            },
            {
                "species": [
                    {
                        "element": "O",
                        "occu": 1
                    }
                ],
                "abc": [
                    0.78656195,
                    0.44406021,
                    0.0376916
                ],
                "xyz": [
                    0.9407426244229216,
                    1.8319735036159623,
                    6.340738092536613
                ],
                "label": "O",
                "properties": {}
            },
            {
                "species": [
                    {
                        "element": "O",
                        "occu": 1
                    }
                ],
                "abc": [
                    0.44406021,
                    0.0376916,
                    0.78656195
                ],
                "xyz": [
                    1.1161644686958225,
                    -1.7306944887562867,
                    6.340738092536613
                ],
                "label": "O",
                "properties": {}
            },
            {
                "species": [
                    {
                        "element": "O",
                        "occu": 1
                    }
                ],
                "abc": [
                    0.9623084,
                    0.21343805,
                    0.55593979
                ],
                "xyz": [
                    2.056907093118744,
                    0.10127928317343504,
                    8.657296997463387
                ],
                "label": "O",
                "properties": {}
            }
        ]
    },
    "spacegroup": {
        "source": "spglib",
        "symbol": "R-3",
        "number": 148,
        "point_group": "-3",
        "crystal_system": "trigonal",
        "hall": "-R 3"
    },
    "dielectric": {
        "epsilon_ionic": [
            [
                6.31905633,
                4.26e-06,
                4.02e-06
            ],
            [
                4.26e-06,
                6.31906625,
                3.78e-06
            ],
            [
                4.02e-06,
                3.78e-06,
                9.37877216
            ]
        ],
        "epsilon_ionic_avg": 7.338964913333332,
        "epsilon_ionic_eig": [
            6.319054751710789,
            6.319067828279258,
            9.378772160009952
        ],
        "epsilon_electronic": [
            [
                4.92778412,
                -7.1e-07,
                -0.0
            ],
            [
                7.1e-07,
                4.92778347,
                -3.2e-07
            ],
            [
                0.0,
                -3.2e-07,
                4.73316235
            ]
        ],
        "epsilon_electronic_avg": 4.8629099799999995,
        "epsilon_electronic_eig": [
            4.927783795000263,
            4.927783795000263,
            4.733162349999473
        ]
    },
    "phonon": {
        "lowest_freq": -0.023287383031341882,
        "frequency": [
            -0.023287383031341882,
            -0.02328738150957277,
            -0.01936259550420237,
            3.0787365011985046,
            3.9474273756118308,
            3.947427617075546,
            4.389798456725127,
            4.389798740665413,
            4.581518089031553,
            4.640690506522395,
            6.632617840518128,
            6.632617951062773,
            8.064767171786361,
            8.064767353614398,
            8.658426075270029,
            8.658426329311714,
            9.570105703374242,
            9.791350921707693,
            12.482005427310384,
            12.482005916815313,
            13.149847270094638,
            13.149847892718158,
            14.07369437841864,
            14.627894758037566,
            14.627895025362573,
            15.84319897432152,
            17.37479290484204,
            17.592700223659122,
            17.59270091826576,
            18.102317145531657
        ]
    },
    "born_effective_charge": {
        "avg_abs_trace": 2.576724,
        "tensors": [
            [
                [
                    2.46457,
                    0.0206,
                    -0.0
                ],
                [
                    -0.02061,
                    2.46458,
                    -0.0
                ],
                [
                    -0.0,
                    -0.0,
                    2.60451
                ]
            ],
            [
                [
                    2.4646,
                    0.02062,
                    1e-05
                ],
                [
                    -0.02061,
                    2.46459,
                    0.0
                ],
                [
                    -0.0,
                    -0.0,
                    2.60453
                ]
            ],
            [
                [
                    4.15528,
                    -0.02676,
                    0.0
                ],
                [
                    0.02676,
                    4.15527,
                    -0.0
                ],
                [
                    -0.0,
                    -0.0,
                    3.48121
                ]
            ],
            [
                [
                    4.15528,
                    -0.02676,
                    -0.0
                ],
                [
                    0.02677,
                    4.15527,
                    0.0
                ],
                [
                    -0.0,
                    -0.0,
                    3.48117
                ]
            ],
            [
                [
                    -2.30067,
                    -0.22429,
                    0.30209
                ],
                [
                    -0.22838,
                    -2.11258,
                    -0.27872
                ],
                [
                    0.41346,
                    -0.26659,
                    -2.02858
                ]
            ],
            [
                [
                    -1.96361,
                    0.03376,
                    -0.39242
                ],
                [
                    0.02967,
                    -2.44962,
                    -0.12226
                ],
                [
                    -0.43764,
                    -0.22476,
                    -2.02856
                ]
            ],
            [
                [
                    -2.3556,
                    0.19667,
                    0.09033
                ],
                [
                    0.19253,
                    -2.05768,
                    0.40096
                ],
                [
                    0.02417,
                    0.49139,
                    -2.02856
                ]
            ],
            [
                [
                    -2.35559,
                    0.19666,
                    0.09034
                ],
                [
                    0.19253,
                    -2.05762,
                    0.40098
                ],
                [
                    0.02415,
                    0.49137,
                    -2.02858
                ]
            ],
            [
                [
                    -1.96357,
                    0.03376,
                    -0.39242
                ],
                [
                    0.02967,
                    -2.44961,
                    -0.12227
                ],
                [
                    -0.43761,
                    -0.22477,
                    -2.02858
                ]
            ],
            [
                [
                    -2.30068,
                    -0.22426,
                    0.30207
                ],
                [
                    -0.22833,
                    -2.11261,
                    -0.27869
                ],
                [
                    0.41347,
                    -0.26663,
                    -2.02856
                ]
            ]
        ]
    },
    "band_gap": 1.0497,
    "is_direct": false,
    "formula": "CdSnO3"
}