{
    "mp_id": "mp-772986",
    "nelements": 5,
    "nsites": 26,
    "elements": [
        "B",
        "Na",
        "O",
        "Si",
        "Sn"
    ],
    "structure": {
        "@module": "pymatgen.core.structure",
        "@class": "Structure",
        "charge": null,
        "lattice": {
            "matrix": [
                [
                    5.2734974,
                    0.0,
                    0.00063955
                ],
                [
                    0.0,
                    6.68659281,
                    0.0
                ],
                [
                    -0.29268106,
                    0.0,
                    8.95527698
                ]
            ],
            "a": 5.2734974387811135,
            "b": 6.68659281,
            "c": 8.960058481472132,
            "alpha": 90.0,
            "beta": 91.86495580455777,
            "gamma": 90.0,
            "volume": 315.77980876287324
        },
        "sites": [
            {
                "species": [
                    {
                        "element": "Na",
                        "occu": 1
                    }
                ],
                "abc": [
                    0.76621795,
                    0.25,
                    0.91771967
                ],
                "xyz": [
                    3.7720492013598803,
                    1.6716482025,
                    8.21892386953412
                ],
                "label": "Na",
                "properties": {}
            },
            {
                "species": [
                    {
                        "element": "Na",
                        "occu": 1
                    }
                ],
                "abc": [
                    0.25285252,
                    0.00551506,
                    0.75241616
                ],
                "xyz": [
                    1.1131991475335186,
                    0.03687696054271859,
                    6.738256828857163
                ],
                "label": "Na",
                "properties": {}
            },
            {
                "species": [
                    {
                        "element": "Na",
                        "occu": 1
                    }
                ],
                "abc": [
                    0.25285252,
                    0.49448494,
                    0.75241616
                ],
                "xyz": [
                    1.1131991475335186,
                    3.306419444457281,
                    6.738256828857163
                ],
                "label": "Na",
                "properties": {}
            },
            {
                "species": [
                    {
                        "element": "Na",
                        "occu": 1
                    }
                ],
                "abc": [
                    0.74714748,
                    0.50551506,
                    0.24758384
                ],
                "xyz": [
                    3.8676171924664815,
                    3.3801733655427184,
                    2.2176597011428374
                ],
                "label": "Na",
                "properties": {}
            },
            {
                "species": [
                    {
                        "element": "Na",
                        "occu": 1
                    }
                ],
                "abc": [
                    0.74714748,
                    0.99448494,
                    0.24758384
                ],
                "xyz": [
                    3.8676171924664815,
                    6.649715849457281,
                    2.2176597011428374
                ],
                "label": "Na",
                "properties": {}
            },
            {
                "species": [
                    {
                        "element": "Na",
                        "occu": 1
                    }
                ],
                "abc": [
                    0.23378205,
                    0.75,
                    0.08228033
                ],
                "xyz": [
                    1.2087671386401202,
                    5.0149446074999995,
                    0.7369926604658809
                ],
                "label": "Na",
                "properties": {}
            },
            {
                "species": [
                    {
                        "element": "Si",
                        "occu": 1
                    }
                ],
                "abc": [
                    0.71728561,
                    0.25,
                    0.57592232
                ],
                "xyz": [
                    3.614042244297155,
                    1.6716482025,
                    5.15800263457607
                ],
                "label": "Si",
                "properties": {}
            },
            {
                "species": [
                    {
                        "element": "Si",
                        "occu": 1
                    }
                ],
                "abc": [
                    0.28271439,
                    0.75,
                    0.42407768
                ],
                "xyz": [
                    1.3667740957028451,
                    5.0149446074999995,
                    3.7979138954239313
                ],
                "label": "Si",
                "properties": {}
            },
            {
                "species": [
                    {
                        "element": "Sn",
                        "occu": 1
                    }
                ],
                "abc": [
                    0.78344292,
                    0.75,
                    0.66095576
                ],
                "xyz": [
                    3.938034969218503,
                    5.0149446074999995,
                    5.919542953245892
                ],
                "label": "Sn",
                "properties": {}
            },
            {
                "species": [
                    {
                        "element": "Sn",
                        "occu": 1
                    }
                ],
                "abc": [
                    0.21655708,
                    0.25,
                    0.33904424
                ],
                "xyz": [
                    1.0427813707814977,
                    1.6716482025,
                    3.0363735767541096
                ],
                "label": "Sn",
                "properties": {}
            },
            {
                "species": [
                    {
                        "element": "B",
                        "occu": 1
                    }
                ],
                "abc": [
                    0.71940011,
                    0.75,
                    0.94112542
                ],
                "xyz": [
                    3.518305024126169,
                    5.0149446074999995,
                    8.428498901359182
                ],
                "label": "B",
                "properties": {}
            },
            {
                "species": [
                    {
                        "element": "B",
                        "occu": 1
                    }
                ],
                "abc": [
                    0.28059989,
                    0.25,
                    0.05887458
                ],
                "xyz": [
                    1.4625113158738314,
                    1.6716482025,
                    0.527417628640818
                ],
                "label": "B",
                "properties": {}
            },
            {
                "species": [
                    {
                        "element": "O",
                        "occu": 1
                    }
                ],
                "abc": [
                    0.32379527,
                    0.25,
                    0.91245565
                ],
                "xyz": [
                    1.440475027632309,
                    1.6716482025,
                    8.171500160980866
                ],
                "label": "O",
                "properties": {}
            },
            {
                "species": [
                    {
                        "element": "O",
                        "occu": 1
                    }
                ],
                "abc": [
                    0.96065712,
                    0.75,
                    0.87792364
                ],
                "xyz": [
                    4.80907120305723,
                    5.0149446074999995,
                    7.862663751750904
                ],
                "label": "O",
                "properties": {}
            },
            {
                "species": [
                    {
                        "element": "O",
                        "occu": 1
                    }
                ],
                "abc": [
                    0.52129704,
                    0.75,
                    0.82948517
                ],
                "xyz": [
                    2.5062839862578157,
                    5.0149446074999995,
                    7.4286028436743194
                ],
                "label": "O",
                "properties": {}
            },
            {
                "species": [
                    {
                        "element": "O",
                        "occu": 1
                    }
                ],
                "abc": [
                    0.79693869,
                    0.05847031,
                    0.6810844
                ],
                "xyz": [
                    4.0033136055329415,
                    0.39096715444447105,
                    6.099809130896302
                ],
                "label": "O",
                "properties": {}
            },
            {
                "species": [
                    {
                        "element": "O",
                        "occu": 1
                    }
                ],
                "abc": [
                    0.79693869,
                    0.44152969,
                    0.6810844
                ],
                "xyz": [
                    4.0033136055329415,
                    2.9523292505555285,
                    6.099809130896302
                ],
                "label": "O",
                "properties": {}
            },
            {
                "species": [
                    {
                        "element": "O",
                        "occu": 1
                    }
                ],
                "abc": [
                    0.40646686,
                    0.25,
                    0.54156599
                ],
                "xyz": [
                    1.9849958213830148,
                    1.6716482025,
                    4.850133399278224
                ],
                "label": "O",
                "properties": {}
            },
            {
                "species": [
                    {
                        "element": "O",
                        "occu": 1
                    }
                ],
                "abc": [
                    0.14387113,
                    0.75,
                    0.58405801
                ],
                "xyz": [
                    0.5877613125217714,
                    5.0149446074999995,
                    5.230493264718802
                ],
                "label": "O",
                "properties": {}
            },
            {
                "species": [
                    {
                        "element": "O",
                        "occu": 1
                    }
                ],
                "abc": [
                    0.85612887,
                    0.25,
                    0.41594199
                ],
                "xyz": [
                    4.393055027478229,
                    1.6716482025,
                    3.725423265281199
                ],
                "label": "O",
                "properties": {}
            },
            {
                "species": [
                    {
                        "element": "O",
                        "occu": 1
                    }
                ],
                "abc": [
                    0.59353314,
                    0.75,
                    0.45843401
                ],
                "xyz": [
                    2.9958205186169855,
                    5.0149446074999995,
                    4.105783130721777
                ],
                "label": "O",
                "properties": {}
            },
            {
                "species": [
                    {
                        "element": "O",
                        "occu": 1
                    }
                ],
                "abc": [
                    0.20306131,
                    0.55847031,
                    0.3189156
                ],
                "xyz": [
                    0.977502734467058,
                    3.734263559444471,
                    2.856107399103699
                ],
                "label": "O",
                "properties": {}
            },
            {
                "species": [
                    {
                        "element": "O",
                        "occu": 1
                    }
                ],
                "abc": [
                    0.20306131,
                    0.94152969,
                    0.3189156
                ],
                "xyz": [
                    0.977502734467058,
                    6.295625655555528,
                    2.856107399103699
                ],
                "label": "O",
                "properties": {}
            },
            {
                "species": [
                    {
                        "element": "O",
                        "occu": 1
                    }
                ],
                "abc": [
                    0.47870296,
                    0.25,
                    0.17051483
                ],
                "xyz": [
                    2.4745323537421844,
                    1.6716482025,
                    1.5273136863256815
                ],
                "label": "O",
                "properties": {}
            },
            {
                "species": [
                    {
                        "element": "O",
                        "occu": 1
                    }
                ],
                "abc": [
                    0.03934288,
                    0.25,
                    0.12207636
                ],
                "xyz": [
                    0.17174513694277038,
                    1.6716482025,
                    1.0932527782490968
                ],
                "label": "O",
                "properties": {}
            },
            {
                "species": [
                    {
                        "element": "O",
                        "occu": 1
                    }
                ],
                "abc": [
                    0.67620473,
                    0.75,
                    0.08754435
                ],
                "xyz": [
                    3.5403413123676915,
                    5.0149446074999995,
                    0.7844163690191346
                ],
                "label": "O",
                "properties": {}
            }
        ]
    },
    "spacegroup": {
        "source": "spglib",
        "symbol": "P2_1/m",
        "number": 11,
        "point_group": "2/m",
        "crystal_system": "monoclinic",
        "hall": "-P 2yb"
    },
    "dielectric": {
        "epsilon_ionic": [
            [
                6.18939565,
                1e-08,
                -1.8655167
            ],
            [
                1e-08,
                8.19507447,
                -2e-08
            ],
            [
                -1.8655167,
                -2e-08,
                4.29408342
            ]
        ],
        "epsilon_ionic_avg": 6.226184513333334,
        "epsilon_ionic_eig": [
            3.1493235461785174,
            7.334155523821483,
            8.195074470000003
        ],
        "epsilon_electronic": [
            [
                2.69728325,
                0.0,
                -0.02253015
            ],
            [
                0.0,
                2.71749955,
                0.0
            ],
            [
                -0.02253117,
                0.0,
                2.82146083
            ]
        ],
        "epsilon_electronic_avg": 2.745414543333333,
        "epsilon_electronic_eig": [
            2.693321691905235,
            2.825422388094765,
            2.71749955
        ]
    },
    "phonon": {
        "lowest_freq": -0.13448128484017902,
        "frequency": [
            -0.13448128484017902,
            -0.054988942774371004,
            -0.054756962653464,
            1.6138535623007437,
            1.9343600508488592,
            2.310224161119419,
            2.7844815277144614,
            2.9581113655495916,
            3.0850061893151453,
            3.2735451525115016,
            3.51717133395618,
            3.582775430259848,
            3.622405390855621,
            3.851559446068277,
            3.9875840458197804,
            3.9977301269700263,
            4.013961004849135,
            4.998641960467347,
            5.052022254686254,
            5.173371296310826,
            5.372299286820761,
            5.662452143911235,
            5.9309422218655685,
            6.030636205704892,
            6.121554543682685,
            6.205124631885189,
            6.213006384083335,
            6.502550614586437,
            6.688275046904111,
            6.7558021211118735,
            7.023347162771714,
            7.344508890903054,
            7.53755535620384,
            7.773572465157453,
            7.9337371296175005,
            8.24305161542486,
            8.285662920593174,
            8.39739968355061,
            9.377915474619977,
            9.664465873877269,
            9.841656126400618,
            9.907765217585554,
            10.111693077883968,
            10.312761001732563,
            10.49849558915047,
            10.592986070409678,
            11.104233001663113,
            11.342368352421381,
            11.489472364129098,
            11.716479160056585,
            12.599300856689988,
            13.26587929320253,
            13.412049239781913,
            14.54308807197138,
            15.64681513581923,
            15.848608476965119,
            16.940697179393016,
            17.026683660257643,
            17.224704746313943,
            17.309096525147016,
            20.31430230465116,
            20.68659235845545,
            20.916948778595675,
            21.22350444241254,
            25.203761388630078,
            25.56646325022587,
            26.292544037826374,
            26.34312955115283,
            26.87870984130018,
            27.264385013523768,
            27.315472610464987,
            27.403576681475023,
            27.844379045783057,
            30.05822988541813,
            33.18312548386326,
            33.445817792510226,
            42.0566555772858,
            43.241804780502854
        ]
    },
    "born_effective_charge": {
        "avg_abs_trace": 1.8138776923076927,
        "tensors": [
            [
                [
                    1.06288,
                    0.0,
                    -0.00749
                ],
                [
                    -1e-05,
                    1.06246,
                    7e-05
                ],
                [
                    -0.01873,
                    0.0,
                    1.20986
                ]
            ],
            [
                [
                    1.13263,
                    0.02165,
                    -0.01206
                ],
                [
                    0.02162,
                    1.01495,
                    -0.01216
                ],
                [
                    0.00273,
                    0.04328,
                    1.0438
                ]
            ],
            [
                [
                    1.13263,
                    -0.02165,
                    -0.01206
                ],
                [
                    -0.02159,
                    1.01498,
                    0.01221
                ],
                [
                    0.00273,
                    -0.04328,
                    1.0438
                ]
            ],
            [
                [
                    1.13264,
                    -0.02166,
                    -0.01205
                ],
                [
                    -0.02162,
                    1.01495,
                    0.01216
                ],
                [
                    0.00276,
                    -0.04326,
                    1.04381
                ]
            ],
            [
                [
                    1.13264,
                    0.02166,
                    -0.01205
                ],
                [
                    0.02159,
                    1.01498,
                    -0.01221
                ],
                [
                    0.00276,
                    0.04326,
                    1.04381
                ]
            ],
            [
                [
                    1.06288,
                    0.0,
                    -0.00749
                ],
                [
                    1e-05,
                    1.06246,
                    -7e-05
                ],
                [
                    -0.01873,
                    0.0,
                    1.20989
                ]
            ],
            [
                [
                    3.07365,
                    0.0,
                    -0.49629
                ],
                [
                    -0.00019,
                    3.30998,
                    -0.00034
                ],
                [
                    0.50222,
                    0.0,
                    2.76388
                ]
            ],
            [
                [
                    3.07367,
                    0.0,
                    -0.49628
                ],
                [
                    0.00019,
                    3.30998,
                    0.00034
                ],
                [
                    0.50216,
                    0.0,
                    2.76383
                ]
            ],
            [
                [
                    3.57504,
                    0.0,
                    0.07899
                ],
                [
                    -4e-05,
                    4.14667,
                    0.00011
                ],
                [
                    -0.25065,
                    0.0,
                    3.72211
                ]
            ],
            [
                [
                    3.57503,
                    0.0,
                    0.07903
                ],
                [
                    4e-05,
                    4.14667,
                    -0.00011
                ],
                [
                    -0.25062,
                    0.0,
                    3.72189
                ]
            ],
            [
                [
                    1.81424,
                    0.0,
                    -0.18421
                ],
                [
                    -4e-05,
                    0.36658,
                    -0.0
                ],
                [
                    -0.10284,
                    0.0,
                    2.88059
                ]
            ],
            [
                [
                    1.81431,
                    0.0,
                    -0.18418
                ],
                [
                    4e-05,
                    0.36658,
                    0.0
                ],
                [
                    -0.10301,
                    0.0,
                    2.88053
                ]
            ],
            [
                [
                    -1.20471,
                    0.0,
                    0.24042
                ],
                [
                    1e-05,
                    -0.97875,
                    -8e-05
                ],
                [
                    0.21177,
                    0.0,
                    -2.47892
                ]
            ],
            [
                [
                    -1.84406,
                    0.0,
                    0.16817
                ],
                [
                    5e-05,
                    -0.96392,
                    0.00012
                ],
                [
                    0.28255,
                    0.0,
                    -1.82388
                ]
            ],
            [
                [
                    -1.65224,
                    0.0,
                    -0.13388
                ],
                [
                    -0.00011,
                    -0.97848,
                    0.00013
                ],
                [
                    -0.34204,
                    0.0,
                    -1.93484
                ]
            ],
            [
                [
                    -1.25892,
                    0.12516,
                    -0.03928
                ],
                [
                    0.2179,
                    -2.68635,
                    0.47979
                ],
                [
                    -0.1387,
                    0.45991,
                    -1.46013
                ]
            ],
            [
                [
                    -1.25892,
                    -0.12516,
                    -0.03928
                ],
                [
                    -0.21781,
                    -2.68604,
                    -0.47971
                ],
                [
                    -0.1387,
                    -0.45991,
                    -1.46013
                ]
            ],
            [
                [
                    -2.37913,
                    0.0,
                    -0.46624
                ],
                [
                    0.00012,
                    -1.33111,
                    0.00021
                ],
                [
                    -0.59177,
                    0.0,
                    -1.67776
                ]
            ],
            [
                [
                    -2.19329,
                    0.0,
                    0.90276
                ],
                [
                    0.00016,
                    -1.29094,
                    -0.00012
                ],
                [
                    0.58104,
                    0.0,
                    -1.82798
                ]
            ],
            [
                [
                    -2.19328,
                    0.0,
                    0.90278
                ],
                [
                    -0.00016,
                    -1.29094,
                    0.00012
                ],
                [
                    0.58117,
                    0.0,
                    -1.82806
                ]
            ],
            [
                [
                    -2.37909,
                    0.0,
                    -0.46625
                ],
                [
                    -0.00012,
                    -1.33111,
                    -0.00021
                ],
                [
                    -0.59148,
                    0.0,
                    -1.67775
                ]
            ],
            [
                [
                    -1.25887,
                    -0.12519,
                    -0.03916
                ],
                [
                    -0.2179,
                    -2.68635,
                    -0.47979
                ],
                [
                    -0.13856,
                    -0.46013,
                    -1.46023
                ]
            ],
            [
                [
                    -1.25887,
                    0.12519,
                    -0.03916
                ],
                [
                    0.21781,
                    -2.68604,
                    0.47971
                ],
                [
                    -0.13856,
                    0.46013,
                    -1.46023
                ]
            ],
            [
                [
                    -1.65232,
                    0.0,
                    -0.13388
                ],
                [
                    0.00011,
                    -0.97848,
                    -0.00013
                ],
                [
                    -0.34158,
                    0.0,
                    -1.93411
                ]
            ],
            [
                [
                    -1.84378,
                    0.0,
                    0.16816
                ],
                [
                    -5e-05,
                    -0.96392,
                    -0.00012
                ],
                [
                    0.28163,
                    0.0,
                    -1.82404
                ]
            ],
            [
                [
                    -1.20475,
                    0.0,
                    0.24098
                ],
                [
                    -1e-05,
                    -0.97875,
                    8e-05
                ],
                [
                    0.21246,
                    0.0,
                    -2.47971
                ]
            ]
        ]
    },
    "band_gap": 3.0559000000000003,
    "is_direct": true,
    "formula": "Na3SiSnBO7"
}