{
    "mp_id": "mp-7128",
    "nelements": 3,
    "nsites": 9,
    "elements": [
        "As",
        "Cd",
        "O"
    ],
    "structure": {
        "@module": "pymatgen.core.structure",
        "@class": "Structure",
        "charge": null,
        "lattice": {
            "matrix": [
                [
                    4.88015198,
                    0.0,
                    0.0
                ],
                [
                    -2.44007599,
                    4.2263357,
                    0.0
                ],
                [
                    0.0,
                    0.0,
                    4.88815441
                ]
            ],
            "a": 4.88015198,
            "b": 4.880152076121089,
            "c": 4.88815441,
            "alpha": 90.0,
            "beta": 90.0,
            "gamma": 119.99999934845064,
            "volume": 100.8189694236726
        },
        "sites": [
            {
                "species": [
                    {
                        "element": "Cd",
                        "occu": 1
                    }
                ],
                "abc": [
                    0.0,
                    0.0,
                    0.0
                ],
                "xyz": [
                    0.0,
                    0.0,
                    0.0
                ],
                "label": "Cd",
                "properties": {}
            },
            {
                "species": [
                    {
                        "element": "As",
                        "occu": 1
                    }
                ],
                "abc": [
                    0.666667,
                    0.333333,
                    0.5
                ],
                "xyz": [
                    2.44007843007599,
                    1.4087771578880999,
                    2.444077205
                ],
                "label": "As",
                "properties": {}
            },
            {
                "species": [
                    {
                        "element": "As",
                        "occu": 1
                    }
                ],
                "abc": [
                    0.333333,
                    0.666667,
                    0.5
                ],
                "xyz": [
                    -2.4400759901510582e-06,
                    2.8175585421119,
                    2.444077205
                ],
                "label": "As",
                "properties": {}
            },
            {
                "species": [
                    {
                        "element": "O",
                        "occu": 1
                    }
                ],
                "abc": [
                    0.62439973,
                    0.62439973,
                    0.71182038
                ],
                "xyz": [
                    1.5235827893354827,
                    2.638922869969361,
                    3.479487929624876
                ],
                "label": "O",
                "properties": {}
            },
            {
                "species": [
                    {
                        "element": "O",
                        "occu": 1
                    }
                ],
                "abc": [
                    0.37560027,
                    0.0,
                    0.71182038
                ],
                "xyz": [
                    1.8329864013290347,
                    0.0,
                    3.479487929624876
                ],
                "label": "O",
                "properties": {}
            },
            {
                "species": [
                    {
                        "element": "O",
                        "occu": 1
                    }
                ],
                "abc": [
                    0.0,
                    0.37560027,
                    0.71182038
                ],
                "xyz": [
                    -0.9164932006645173,
                    1.587412830030639,
                    3.479487929624876
                ],
                "label": "O",
                "properties": {}
            },
            {
                "species": [
                    {
                        "element": "O",
                        "occu": 1
                    }
                ],
                "abc": [
                    0.62439973,
                    0.0,
                    0.28817962
                ],
                "xyz": [
                    3.0471655786709655,
                    0.0,
                    1.4086664803751243
                ],
                "label": "O",
                "properties": {}
            },
            {
                "species": [
                    {
                        "element": "O",
                        "occu": 1
                    }
                ],
                "abc": [
                    0.0,
                    0.62439973,
                    0.28817962
                ],
                "xyz": [
                    -1.5235827893354827,
                    2.638922869969361,
                    1.4086664803751243
                ],
                "label": "O",
                "properties": {}
            },
            {
                "species": [
                    {
                        "element": "O",
                        "occu": 1
                    }
                ],
                "abc": [
                    0.37560027,
                    0.37560027,
                    0.28817962
                ],
                "xyz": [
                    0.9164932006645173,
                    1.587412830030639,
                    1.4086664803751243
                ],
                "label": "O",
                "properties": {}
            }
        ]
    },
    "spacegroup": {
        "source": "spglib",
        "symbol": "P-31m",
        "number": 162,
        "point_group": "-3m",
        "crystal_system": "trigonal",
        "hall": "-P 3 2"
    },
    "dielectric": {
        "epsilon_ionic": [
            [
                7.60540286,
                -0.0,
                3.207e-05
            ],
            [
                -0.0,
                7.60529908,
                1e-08
            ],
            [
                3.207e-05,
                1e-08,
                5.33465692
            ]
        ],
        "epsilon_ionic_avg": 6.848452953333333,
        "epsilon_ionic_eig": [
            5.334656919547072,
            7.605402860452928,
            7.60529908
        ],
        "epsilon_electronic": [
            [
                4.38453718,
                0.0,
                -0.0
            ],
            [
                0.0,
                4.384538,
                0.0
            ],
            [
                0.0,
                -0.0,
                3.73151205
            ]
        ],
        "epsilon_electronic_avg": 4.16686241,
        "epsilon_electronic_eig": [
            4.38453718,
            4.384538,
            3.73151205
        ]
    },
    "phonon": {
        "lowest_freq": -0.03349299369712889,
        "frequency": [
            -0.03349299369712889,
            -0.033492990595881456,
            -0.015505191463999299,
            4.0057738081701615,
            4.00577418034313,
            4.040678998798683,
            5.84055319138068,
            8.039288683041889,
            8.039288987049042,
            10.038812993995881,
            10.306249001972223,
            10.30624946439094,
            11.36635392118801,
            11.979743872497984,
            11.979744821149792,
            15.578733546849465,
            15.578734166527887,
            15.834223250890734,
            15.83422394546258,
            17.89515147103432,
            17.89515147103432,
            18.533912952319156,
            19.267643445500134,
            20.419743556919755,
            21.38556511402777,
            21.594729195536335,
            21.59472925212425
        ]
    },
    "born_effective_charge": {
        "avg_abs_trace": 2.508417037037037,
        "tensors": [
            [
                [
                    2.54192,
                    0.0,
                    3e-05
                ],
                [
                    -0.0,
                    2.54197,
                    0.0
                ],
                [
                    0.0,
                    -0.0,
                    3.1318
                ]
            ],
            [
                [
                    4.92808,
                    1e-05,
                    -0.00021
                ],
                [
                    -0.0,
                    4.92797,
                    0.0
                ],
                [
                    0.0,
                    -0.0,
                    2.96791
                ]
            ],
            [
                [
                    4.92808,
                    -1e-05,
                    -0.00021
                ],
                [
                    -0.0,
                    4.92798,
                    0.0
                ],
                [
                    0.0,
                    -0.0,
                    2.96791
                ]
            ],
            [
                [
                    -2.25968,
                    0.33514,
                    -0.22883
                ],
                [
                    0.3351,
                    -1.87279,
                    -0.39638
                ],
                [
                    -0.22836,
                    -0.39553,
                    -1.51127
                ]
            ],
            [
                [
                    -1.67946,
                    0.0,
                    0.45785
                ],
                [
                    0.00017,
                    -2.45345,
                    4e-05
                ],
                [
                    0.45672,
                    -0.0,
                    -1.51127
                ]
            ],
            [
                [
                    -2.25968,
                    -0.33514,
                    -0.22883
                ],
                [
                    -0.33532,
                    -1.87272,
                    0.39645
                ],
                [
                    -0.22836,
                    0.39553,
                    -1.51127
                ]
            ],
            [
                [
                    -1.67948,
                    0.0,
                    0.45783
                ],
                [
                    -0.00017,
                    -2.45345,
                    -4e-05
                ],
                [
                    0.45654,
                    -0.0,
                    -1.51127
                ]
            ],
            [
                [
                    -2.2599,
                    -0.33525,
                    -0.22882
                ],
                [
                    -0.3351,
                    -1.87279,
                    0.39638
                ],
                [
                    -0.22827,
                    0.39538,
                    -1.51127
                ]
            ],
            [
                [
                    -2.2599,
                    0.33525,
                    -0.22882
                ],
                [
                    0.33532,
                    -1.87272,
                    -0.39645
                ],
                [
                    -0.22827,
                    -0.39538,
                    -1.51127
                ]
            ]
        ]
    },
    "band_gap": 2.1321000000000003,
    "is_direct": false,
    "formula": "Cd(AsO3)2"
}