{
    "mp_id": "mp-779287",
    "nelements": 3,
    "nsites": 14,
    "elements": [
        "Hg",
        "La",
        "O"
    ],
    "structure": {
        "@module": "pymatgen.core.structure",
        "@class": "Structure",
        "charge": null,
        "lattice": {
            "matrix": [
                [
                    6.9918974,
                    -1.94204939,
                    -0.00044867
                ],
                [
                    6.9918974,
                    1.94204939,
                    -0.00044867
                ],
                [
                    -5.26705202,
                    0.0,
                    8.88621118
                ]
            ],
            "a": 7.256595984801063,
            "b": 7.256595984801063,
            "c": 10.329888001180995,
            "alpha": 119.42861894217211,
            "beta": 119.42861894217211,
            "gamma": 31.046025879885455,
            "volume": 241.31561463556218
        },
        "sites": [
            {
                "species": [
                    {
                        "element": "La",
                        "occu": 1
                    }
                ],
                "abc": [
                    0.38080547,
                    0.38080547,
                    0.54362833
                ],
                "xyz": [
                    2.461786857541829,
                    0.0,
                    4.83045443183028
                ],
                "label": "La",
                "properties": {}
            },
            {
                "species": [
                    {
                        "element": "La",
                        "occu": 1
                    }
                ],
                "abc": [
                    0.8390777,
                    0.8390777,
                    0.20134577
                ],
                "xyz": [
                    10.672991733459005,
                    0.0,
                    1.7884480944363907
                ],
                "label": "La",
                "properties": {}
            },
            {
                "species": [
                    {
                        "element": "La",
                        "occu": 1
                    }
                ],
                "abc": [
                    0.1609223,
                    0.1609223,
                    0.79865423
                ],
                "xyz": [
                    -1.956248953459005,
                    0.0,
                    7.09686574556361
                ],
                "label": "La",
                "properties": {}
            },
            {
                "species": [
                    {
                        "element": "La",
                        "occu": 1
                    }
                ],
                "abc": [
                    0.61919453,
                    0.61919453,
                    0.45637167
                ],
                "xyz": [
                    6.254955922458171,
                    0.0,
                    4.054859408169721
                ],
                "label": "La",
                "properties": {}
            },
            {
                "species": [
                    {
                        "element": "Hg",
                        "occu": 1
                    }
                ],
                "abc": [
                    0.11662913,
                    0.11662913,
                    0.16409558
                ],
                "xyz": [
                    0.7666178655104523,
                    0.0,
                    1.45808332160107
                ],
                "label": "Hg",
                "properties": {}
            },
            {
                "species": [
                    {
                        "element": "Hg",
                        "occu": 1
                    }
                ],
                "abc": [
                    0.88337087,
                    0.88337087,
                    0.83590442
                ],
                "xyz": [
                    7.950124914489549,
                    0.0,
                    7.42723051839893
                ],
                "label": "Hg",
                "properties": {}
            },
            {
                "species": [
                    {
                        "element": "O",
                        "occu": 1
                    }
                ],
                "abc": [
                    0.77261532,
                    0.77261532,
                    0.39001292
                ],
                "xyz": [
                    8.749875756104236,
                    0.0,
                    3.4650438714171967
                ],
                "label": "O",
                "properties": {}
            },
            {
                "species": [
                    {
                        "element": "O",
                        "occu": 1
                    }
                ],
                "abc": [
                    0.20343105,
                    0.20343105,
                    0.05942549
                ],
                "xyz": [
                    2.53174091200455,
                    0.0,
                    0.5278849067965712
                ],
                "label": "O",
                "properties": {}
            },
            {
                "species": [
                    {
                        "element": "O",
                        "occu": 1
                    }
                ],
                "abc": [
                    0.96391634,
                    0.96391634,
                    0.72285844
                ],
                "xyz": [
                    9.671875296350983,
                    0.0,
                    6.422607790396824
                ],
                "label": "O",
                "properties": {}
            },
            {
                "species": [
                    {
                        "element": "O",
                        "occu": 1
                    }
                ],
                "abc": [
                    0.41859244,
                    0.41859244,
                    0.34582659
                ],
                "xyz": [
                    4.0320241463621,
                    0.0,
                    3.0727124906591667
                ],
                "label": "O",
                "properties": {}
            },
            {
                "species": [
                    {
                        "element": "O",
                        "occu": 1
                    }
                ],
                "abc": [
                    0.58140756,
                    0.58140756,
                    0.65417341
                ],
                "xyz": [
                    4.6847186336379005,
                    0.0,
                    5.812601349340833
                ],
                "label": "O",
                "properties": {}
            },
            {
                "species": [
                    {
                        "element": "O",
                        "occu": 1
                    }
                ],
                "abc": [
                    0.03608366,
                    0.03608366,
                    0.27714156
                ],
                "xyz": [
                    -0.9551325163509833,
                    0.0,
                    2.4627060496031765
                ],
                "label": "O",
                "properties": {}
            },
            {
                "species": [
                    {
                        "element": "O",
                        "occu": 1
                    }
                ],
                "abc": [
                    0.79656895,
                    0.79656895,
                    0.94057451
                ],
                "xyz": [
                    6.1850018679954495,
                    0.0,
                    8.357428933203428
                ],
                "label": "O",
                "properties": {}
            },
            {
                "species": [
                    {
                        "element": "O",
                        "occu": 1
                    }
                ],
                "abc": [
                    0.22738468,
                    0.22738468,
                    0.60998708
                ],
                "xyz": [
                    -0.03313297610423804,
                    0.0,
                    5.4202699685828035
                ],
                "label": "O",
                "properties": {}
            }
        ]
    },
    "spacegroup": {
        "source": "spglib",
        "symbol": "C2/m",
        "number": 12,
        "point_group": "2/m",
        "crystal_system": "monoclinic",
        "hall": "-C 2y"
    },
    "dielectric": {
        "epsilon_ionic": [
            [
                10.00772885,
                0.0,
                -0.71746681
            ],
            [
                0.0,
                10.54931139,
                -2e-08
            ],
            [
                -0.71746681,
                -2e-08,
                8.57534714
            ]
        ],
        "epsilon_ionic_avg": 9.71079579333333,
        "epsilon_ionic_eig": [
            8.277788536683392,
            10.305287453316598,
            10.54931139
        ],
        "epsilon_electronic": [
            [
                4.99492528,
                0.0,
                -0.29709601
            ],
            [
                0.0,
                4.54341102,
                0.0
            ],
            [
                -0.2971122,
                0.0,
                4.74082056
            ]
        ],
        "epsilon_electronic_avg": 4.7597189533333335,
        "epsilon_electronic_eig": [
            5.191003158950012,
            4.544742681049989,
            4.54341102
        ]
    },
    "phonon": {
        "lowest_freq": -0.06980676584764757,
        "frequency": [
            -0.06980676584764757,
            -0.02689472877505945,
            -0.017275921300233876,
            1.5761767439598846,
            1.5948887062073198,
            2.053479206839107,
            2.0948054698388194,
            2.341350100287459,
            2.933907155154366,
            2.969176908205905,
            3.2560645504156303,
            3.3080734026459315,
            3.3147991852669487,
            4.5396004690112335,
            4.705398364140101,
            5.018391460032414,
            5.105355516587636,
            5.473878750614319,
            5.838488175579206,
            6.520504068136627,
            6.8327902024121405,
            7.044183993397438,
            7.291579046981257,
            7.696612907638977,
            7.853754036055135,
            8.081257298656917,
            8.200245757833185,
            8.26634795486961,
            8.657526523374898,
            8.658213425651725,
            9.807892523695509,
            10.545067254826455,
            10.629588898617463,
            10.759362907041789,
            10.9433582998055,
            13.19516738773906,
            13.636058318770125,
            14.90607882645913,
            17.727558219137205,
            18.53341356734344,
            18.841862045069178,
            19.166051761155796
        ]
    },
    "born_effective_charge": {
        "avg_abs_trace": 2.7711411904761905,
        "tensors": [
            [
                [
                    4.1028,
                    0.0,
                    -0.37486
                ],
                [
                    -0.00023,
                    3.9405,
                    -0.00032
                ],
                [
                    0.03849,
                    0.0,
                    3.93979
                ]
            ],
            [
                [
                    4.11356,
                    0.0,
                    -0.00389
                ],
                [
                    4e-05,
                    4.39155,
                    0.00014
                ],
                [
                    -0.27729,
                    0.0,
                    4.0664
                ]
            ],
            [
                [
                    4.11354,
                    0.0,
                    -0.00377
                ],
                [
                    -4e-05,
                    4.39155,
                    -0.00014
                ],
                [
                    -0.27756,
                    0.0,
                    4.06653
                ]
            ],
            [
                [
                    4.10287,
                    0.0,
                    -0.37504
                ],
                [
                    0.00023,
                    3.9405,
                    0.00032
                ],
                [
                    0.03834,
                    0.0,
                    3.93968
                ]
            ],
            [
                [
                    2.32043,
                    0.0,
                    -0.71486
                ],
                [
                    -6e-05,
                    0.70758,
                    -2e-05
                ],
                [
                    -0.77115,
                    0.0,
                    1.51436
                ]
            ],
            [
                [
                    2.32037,
                    0.0,
                    -0.71484
                ],
                [
                    6e-05,
                    0.70758,
                    2e-05
                ],
                [
                    -0.7711,
                    0.0,
                    1.51438
                ]
            ],
            [
                [
                    -2.67956,
                    0.0,
                    0.23028
                ],
                [
                    0.00023,
                    -2.81856,
                    0.00048
                ],
                [
                    0.17621,
                    0.0,
                    -2.52156
                ]
            ],
            [
                [
                    -2.32567,
                    0.0,
                    0.48711
                ],
                [
                    5e-05,
                    -1.6252,
                    0.00016
                ],
                [
                    0.64234,
                    0.0,
                    -2.54298
                ]
            ],
            [
                [
                    -2.72068,
                    0.0,
                    0.30343
                ],
                [
                    -7e-05,
                    -1.72384,
                    -2e-05
                ],
                [
                    0.26386,
                    0.0,
                    -1.96106
                ]
            ],
            [
                [
                    -2.81084,
                    0.0,
                    0.07286
                ],
                [
                    -0.00017,
                    -2.87202,
                    -0.0003
                ],
                [
                    -0.0723,
                    0.0,
                    -2.49502
                ]
            ],
            [
                [
                    -2.81099,
                    0.0,
                    0.07281
                ],
                [
                    0.00017,
                    -2.87202,
                    0.0003
                ],
                [
                    -0.07225,
                    0.0,
                    -2.49508
                ]
            ],
            [
                [
                    -2.72069,
                    0.0,
                    0.30348
                ],
                [
                    7e-05,
                    -1.72384,
                    2e-05
                ],
                [
                    0.26373,
                    0.0,
                    -1.96105
                ]
            ],
            [
                [
                    -2.3255,
                    0.0,
                    0.48708
                ],
                [
                    -5e-05,
                    -1.6252,
                    -0.00016
                ],
                [
                    0.64232,
                    0.0,
                    -2.54285
                ]
            ],
            [
                [
                    -2.67965,
                    0.0,
                    0.2302
                ],
                [
                    -0.00023,
                    -2.81856,
                    -0.00048
                ],
                [
                    0.17637,
                    0.0,
                    -2.52154
                ]
            ]
        ]
    },
    "band_gap": 2.3112,
    "is_direct": false,
    "formula": "La2HgO4"
}