{
    "mp_id": "mp-776084",
    "nelements": 3,
    "nsites": 30,
    "elements": [
        "Ba",
        "O",
        "Si"
    ],
    "structure": {
        "@module": "pymatgen.core.structure",
        "@class": "Structure",
        "charge": null,
        "lattice": {
            "matrix": [
                [
                    6.48664552,
                    -3.75380592,
                    0.0001844
                ],
                [
                    6.48664552,
                    3.75380592,
                    0.0001844
                ],
                [
                    -4.22899289,
                    0.0,
                    10.5133434
                ]
            ],
            "a": 7.4945065895738905,
            "b": 7.4945065895738905,
            "c": 11.33202410472172,
            "alpha": 108.84325049736066,
            "beta": 108.84325049736066,
            "gamma": 60.11572334531753,
            "volume": 511.9974431935662
        },
        "sites": [
            {
                "species": [
                    {
                        "element": "Ba",
                        "occu": 1
                    }
                ],
                "abc": [
                    0.5,
                    0.0,
                    0.5
                ],
                "xyz": [
                    1.128826315,
                    -1.87690296,
                    5.2567639
                ],
                "label": "Ba",
                "properties": {}
            },
            {
                "species": [
                    {
                        "element": "Ba",
                        "occu": 1
                    }
                ],
                "abc": [
                    0.15131455,
                    0.67371465,
                    0.50081761
                ],
                "xyz": [
                    3.2337178521723913,
                    1.9609885879885918,
                    5.265419650081754
                ],
                "label": "Ba",
                "properties": {}
            },
            {
                "species": [
                    {
                        "element": "Ba",
                        "occu": 1
                    }
                ],
                "abc": [
                    0.32628535,
                    0.84868545,
                    0.99918239
                ],
                "xyz": [
                    3.3960838528276085,
                    1.960988587988592,
                    10.504964249918245
                ],
                "label": "Ba",
                "properties": {}
            },
            {
                "species": [
                    {
                        "element": "Ba",
                        "occu": 1
                    }
                ],
                "abc": [
                    0.67371465,
                    0.15131455,
                    0.00081761
                ],
                "xyz": [
                    5.348214297172391,
                    -1.9609885879885918,
                    0.008747950081753999
                ],
                "label": "Ba",
                "properties": {}
            },
            {
                "species": [
                    {
                        "element": "Ba",
                        "occu": 1
                    }
                ],
                "abc": [
                    0.84868545,
                    0.32628535,
                    0.49918239
                ],
                "xyz": [
                    5.510580297827609,
                    -1.960988587988592,
                    5.248292549918245
                ],
                "label": "Ba",
                "properties": {}
            },
            {
                "species": [
                    {
                        "element": "Ba",
                        "occu": 1
                    }
                ],
                "abc": [
                    0.0,
                    0.5,
                    0.0
                ],
                "xyz": [
                    3.24332276,
                    1.87690296,
                    9.22e-05
                ],
                "label": "Ba",
                "properties": {}
            },
            {
                "species": [
                    {
                        "element": "Si",
                        "occu": 1
                    }
                ],
                "abc": [
                    0.34306343,
                    0.41811199,
                    0.75315251
                ],
                "xyz": [
                    1.7523985182014639,
                    0.2817177288154753,
                    7.9182913309493825
                ],
                "label": "Si",
                "properties": {}
            },
            {
                "species": [
                    {
                        "element": "Si",
                        "occu": 1
                    }
                ],
                "abc": [
                    0.82213598,
                    0.17786402,
                    0.75
                ],
                "xyz": [
                    3.3149008525,
                    -2.418471897538003,
                    7.88519195
                ],
                "label": "Si",
                "properties": {}
            },
            {
                "species": [
                    {
                        "element": "Si",
                        "occu": 1
                    }
                ],
                "abc": [
                    0.41811199,
                    0.34306343,
                    0.25315251
                ],
                "xyz": [
                    3.8668949632014638,
                    -0.2817177288154753,
                    2.661619630949382
                ],
                "label": "Si",
                "properties": {}
            },
            {
                "species": [
                    {
                        "element": "Si",
                        "occu": 1
                    }
                ],
                "abc": [
                    0.58188801,
                    0.65693657,
                    0.74684749
                ],
                "xyz": [
                    4.877403186798536,
                    0.2817177288154755,
                    7.852092569050617
                ],
                "label": "Si",
                "properties": {}
            },
            {
                "species": [
                    {
                        "element": "Si",
                        "occu": 1
                    }
                ],
                "abc": [
                    0.17786402,
                    0.82213598,
                    0.25
                ],
                "xyz": [
                    5.4293972974999996,
                    2.418471897538003,
                    2.6285202500000002
                ],
                "label": "Si",
                "properties": {}
            },
            {
                "species": [
                    {
                        "element": "Si",
                        "occu": 1
                    }
                ],
                "abc": [
                    0.65693657,
                    0.58188801,
                    0.24684749
                ],
                "xyz": [
                    6.991899631798535,
                    -0.2817177288154755,
                    2.595420869050618
                ],
                "label": "Si",
                "properties": {}
            },
            {
                "species": [
                    {
                        "element": "O",
                        "occu": 1
                    }
                ],
                "abc": [
                    0.19635111,
                    0.37267506,
                    0.61911263
                ],
                "xyz": [
                    1.0728481460140573,
                    0.6618858873477841,
                    6.509048610892891
                ],
                "label": "O",
                "properties": {}
            },
            {
                "species": [
                    {
                        "element": "O",
                        "occu": 1
                    }
                ],
                "abc": [
                    0.28651985,
                    0.46321487,
                    0.88822329
                ],
                "xyz": [
                    1.1069733845340464,
                    0.6632788121105182,
                    9.338334714730156
                ],
                "label": "O",
                "properties": {}
            },
            {
                "species": [
                    {
                        "element": "O",
                        "occu": 1
                    }
                ],
                "abc": [
                    0.58304867,
                    0.21299107,
                    0.75188296
                ],
                "xyz": [
                    1.9839199212608105,
                    -1.3891244096209923,
                    7.90495054481652
                ],
                "label": "O",
                "properties": {}
            },
            {
                "species": [
                    {
                        "element": "O",
                        "occu": 1
                    }
                ],
                "abc": [
                    0.37267506,
                    0.19635111,
                    0.11911263
                ],
                "xyz": [
                    3.1873445910140576,
                    -0.6618858873477841,
                    1.25237691089289
                ],
                "label": "O",
                "properties": {}
            },
            {
                "species": [
                    {
                        "element": "O",
                        "occu": 1
                    }
                ],
                "abc": [
                    0.46321487,
                    0.28651985,
                    0.38822329
                ],
                "xyz": [
                    3.221469829534046,
                    -0.6632788121105182,
                    4.081663014730154
                ],
                "label": "O",
                "properties": {}
            },
            {
                "species": [
                    {
                        "element": "O",
                        "occu": 1
                    }
                ],
                "abc": [
                    0.87953888,
                    0.0299191,
                    0.61585583
                ],
                "xyz": [
                    3.2948816052602012,
                    -3.1893077599130977,
                    6.474871529733534
                ],
                "label": "O",
                "properties": {}
            },
            {
                "species": [
                    {
                        "element": "O",
                        "occu": 1
                    }
                ],
                "abc": [
                    0.37784439,
                    0.62215561,
                    0.75
                ],
                "xyz": [
                    3.3149008525,
                    0.9170969039584225,
                    7.88519195
                ],
                "label": "O",
                "properties": {}
            },
            {
                "species": [
                    {
                        "element": "O",
                        "occu": 1
                    }
                ],
                "abc": [
                    0.9700809,
                    0.12046112,
                    0.88414417
                ],
                "xyz": [
                    3.3349200997397994,
                    -3.1893077599130977,
                    9.295512370266467
                ],
                "label": "O",
                "properties": {}
            },
            {
                "species": [
                    {
                        "element": "O",
                        "occu": 1
                    }
                ],
                "abc": [
                    0.21299107,
                    0.58304867,
                    0.25188296
                ],
                "xyz": [
                    4.09841636626081,
                    1.3891244096209923,
                    2.6482788448165198
                ],
                "label": "O",
                "properties": {}
            },
            {
                "species": [
                    {
                        "element": "O",
                        "occu": 1
                    }
                ],
                "abc": [
                    0.78700893,
                    0.41695133,
                    0.74811704
                ],
                "xyz": [
                    4.645881783739189,
                    -1.389124409620992,
                    7.86543335518348
                ],
                "label": "O",
                "properties": {}
            },
            {
                "species": [
                    {
                        "element": "O",
                        "occu": 1
                    }
                ],
                "abc": [
                    0.0299191,
                    0.87953888,
                    0.11585583
                ],
                "xyz": [
                    5.409378050260201,
                    3.1893077599130977,
                    1.2181998297335341
                ],
                "label": "O",
                "properties": {}
            },
            {
                "species": [
                    {
                        "element": "O",
                        "occu": 1
                    }
                ],
                "abc": [
                    0.62215561,
                    0.37784439,
                    0.25
                ],
                "xyz": [
                    5.4293972974999996,
                    -0.9170969039584225,
                    2.6285202500000002
                ],
                "label": "O",
                "properties": {}
            },
            {
                "species": [
                    {
                        "element": "O",
                        "occu": 1
                    }
                ],
                "abc": [
                    0.12046112,
                    0.9700809,
                    0.38414417
                ],
                "xyz": [
                    5.449416544739799,
                    3.1893077599130977,
                    4.038840670266466
                ],
                "label": "O",
                "properties": {}
            },
            {
                "species": [
                    {
                        "element": "O",
                        "occu": 1
                    }
                ],
                "abc": [
                    0.53678513,
                    0.71348015,
                    0.61177671
                ],
                "xyz": [
                    5.522828320465953,
                    0.6632788121105184,
                    6.432049185269847
                ],
                "label": "O",
                "properties": {}
            },
            {
                "species": [
                    {
                        "element": "O",
                        "occu": 1
                    }
                ],
                "abc": [
                    0.62732494,
                    0.80364889,
                    0.88088737
                ],
                "xyz": [
                    5.556953558985942,
                    0.6618858873477835,
                    9.261335289107109
                ],
                "label": "O",
                "properties": {}
            },
            {
                "species": [
                    {
                        "element": "O",
                        "occu": 1
                    }
                ],
                "abc": [
                    0.41695133,
                    0.78700893,
                    0.24811704
                ],
                "xyz": [
                    6.760378228739189,
                    1.389124409620992,
                    2.6087616551834802
                ],
                "label": "O",
                "properties": {}
            },
            {
                "species": [
                    {
                        "element": "O",
                        "occu": 1
                    }
                ],
                "abc": [
                    0.71348015,
                    0.53678513,
                    0.11177671
                ],
                "xyz": [
                    7.637324765465953,
                    -0.6632788121105184,
                    1.175377485269846
                ],
                "label": "O",
                "properties": {}
            },
            {
                "species": [
                    {
                        "element": "O",
                        "occu": 1
                    }
                ],
                "abc": [
                    0.80364889,
                    0.62732494,
                    0.38088737
                ],
                "xyz": [
                    7.6714500039859415,
                    -0.6618858873477835,
                    4.0046635891071105
                ],
                "label": "O",
                "properties": {}
            }
        ]
    },
    "spacegroup": {
        "source": "spglib",
        "symbol": "C2/c",
        "number": 15,
        "point_group": "2/m",
        "crystal_system": "monoclinic",
        "hall": "-C 2yc"
    },
    "dielectric": {
        "epsilon_ionic": [
            [
                5.57381387,
                0.0,
                0.13108555
            ],
            [
                0.0,
                5.59975601,
                -0.0
            ],
            [
                0.13108555,
                -0.0,
                3.82264019
            ]
        ],
        "epsilon_ionic_avg": 4.99873669,
        "epsilon_ionic_eig": [
            5.583572011236122,
            3.812882048763879,
            5.59975601
        ],
        "epsilon_electronic": [
            [
                2.81891379,
                0.0,
                0.0036076
            ],
            [
                0.0,
                2.81712891,
                0.0
            ],
            [
                0.00360707,
                0.0,
                2.9506984
            ]
        ],
        "epsilon_electronic_avg": 2.862247033333334,
        "epsilon_electronic_eig": [
            2.818815120435708,
            2.9507970695642918,
            2.81712891
        ]
    },
    "phonon": {
        "lowest_freq": -0.04489311464165129,
        "frequency": [
            -0.04489311464165129,
            -0.021403965007673106,
            -0.018321942486405365,
            1.9657337308897573,
            2.055434835415992,
            2.7972101054779066,
            2.8444839987676174,
            2.896590807129789,
            2.9204132992345646,
            3.120366887413497,
            3.1282121243463266,
            3.1459556913935747,
            3.1590173314586463,
            3.2284708085368385,
            3.257786076283003,
            3.281527560016649,
            3.3000313974016584,
            4.05147016807603,
            4.055109262887204,
            4.184945501166844,
            4.288789251035311,
            4.347302874602893,
            4.363647551163183,
            4.4073001160277805,
            4.6620273193260955,
            4.670599735276359,
            4.977192528713537,
            5.012417296664551,
            5.086938008017148,
            5.087048413413567,
            5.260019086469557,
            5.48598625034578,
            5.513663136707732,
            5.68101125192443,
            5.875287644717991,
            6.111712943597827,
            7.7860705044859,
            7.932984292524979,
            8.119937269491398,
            8.215461857569478,
            8.31495886205164,
            8.326209496276705,
            9.112164767825833,
            9.16828780955861,
            9.305088922662726,
            9.33123740349084,
            9.580755174130376,
            9.698854270593188,
            9.783120788919875,
            9.784331257931376,
            10.167586865822429,
            10.261249334353034,
            12.255349844846748,
            12.297830154334548,
            12.331647415391942,
            12.345079815691168,
            13.187870586509845,
            13.18996010152305,
            13.29081032138553,
            13.386741458220186,
            13.70888843061406,
            13.712399275954338,
            14.897525610366806,
            15.404207517233953,
            15.564475814757152,
            15.606952336396565,
            16.245254435233708,
            16.251526965399016,
            19.91350433285633,
            20.011011953823616,
            20.023017855621376,
            20.15358188321124,
            25.963122445814214,
            25.96333052722921,
            26.400461760410376,
            26.481113296467203,
            26.500128315879344,
            26.600558716872566,
            27.813060841624687,
            27.827978063636678,
            27.89346976345193,
            27.909423840977908,
            28.068596256789803,
            28.07040338721958,
            30.058278223514503,
            30.301013806814957,
            30.306820059815298,
            30.314380590612164,
            30.318996766961032,
            32.734415986186434
        ]
    },
    "born_effective_charge": {
        "avg_abs_trace": 2.2019842222222223,
        "tensors": [
            [
                [
                    2.80838,
                    0.28106,
                    0.21043
                ],
                [
                    0.2827,
                    2.46153,
                    0.11669
                ],
                [
                    0.10843,
                    0.05538,
                    2.60805
                ]
            ],
            [
                [
                    2.543,
                    -0.13163,
                    -0.07493
                ],
                [
                    -0.13034,
                    2.70787,
                    -0.05161
                ],
                [
                    -0.03602,
                    -0.02781,
                    2.61023
                ]
            ],
            [
                [
                    2.54303,
                    0.13167,
                    -0.07499
                ],
                [
                    0.13034,
                    2.70787,
                    0.05161
                ],
                [
                    -0.03606,
                    0.02783,
                    2.61024
                ]
            ],
            [
                [
                    2.543,
                    0.13163,
                    -0.07493
                ],
                [
                    0.1303,
                    2.70768,
                    0.05157
                ],
                [
                    -0.03602,
                    0.02781,
                    2.61023
                ]
            ],
            [
                [
                    2.54303,
                    -0.13167,
                    -0.07499
                ],
                [
                    -0.1303,
                    2.70768,
                    -0.05157
                ],
                [
                    -0.03606,
                    -0.02783,
                    2.61024
                ]
            ],
            [
                [
                    2.80838,
                    -0.28106,
                    0.21043
                ],
                [
                    -0.2827,
                    2.46153,
                    -0.11669
                ],
                [
                    0.10843,
                    -0.05538,
                    2.60805
                ]
            ],
            [
                [
                    2.76822,
                    -0.11748,
                    -0.01527
                ],
                [
                    -0.12208,
                    2.6257,
                    0.00123
                ],
                [
                    -0.00364,
                    0.00343,
                    3.24705
                ]
            ],
            [
                [
                    2.57063,
                    8e-05,
                    0.00207
                ],
                [
                    -0.0,
                    2.83718,
                    -0.0
                ],
                [
                    0.00408,
                    -1e-05,
                    3.25475
                ]
            ],
            [
                [
                    2.76822,
                    0.11748,
                    -0.01527
                ],
                [
                    0.12208,
                    2.62571,
                    -0.00122
                ],
                [
                    -0.00364,
                    -0.00343,
                    3.24705
                ]
            ],
            [
                [
                    2.76832,
                    0.11746,
                    -0.01517
                ],
                [
                    0.12208,
                    2.6257,
                    -0.00123
                ],
                [
                    -0.00364,
                    -0.00343,
                    3.24706
                ]
            ],
            [
                [
                    2.57063,
                    -8e-05,
                    0.00207
                ],
                [
                    -0.0,
                    2.83721,
                    -0.0
                ],
                [
                    0.00408,
                    1e-05,
                    3.25475
                ]
            ],
            [
                [
                    2.76832,
                    -0.11746,
                    -0.01517
                ],
                [
                    -0.12208,
                    2.62571,
                    0.00122
                ],
                [
                    -0.00364,
                    0.00343,
                    3.24706
                ]
            ],
            [
                [
                    -1.81824,
                    0.17148,
                    -0.44489
                ],
                [
                    0.18679,
                    -1.59276,
                    0.25852
                ],
                [
                    -0.39624,
                    0.22542,
                    -2.11846
                ]
            ],
            [
                [
                    -1.77437,
                    0.18294,
                    0.42278
                ],
                [
                    0.18302,
                    -1.56458,
                    -0.24477
                ],
                [
                    0.38044,
                    -0.22329,
                    -2.09422
                ]
            ],
            [
                [
                    -1.5798,
                    0.61358,
                    0.00451
                ],
                [
                    0.61723,
                    -2.29167,
                    -0.01529
                ],
                [
                    0.01124,
                    -0.00023,
                    -1.65955
                ]
            ],
            [
                [
                    -1.81824,
                    -0.17148,
                    -0.44489
                ],
                [
                    -0.18679,
                    -1.59277,
                    -0.25857
                ],
                [
                    -0.39624,
                    -0.22542,
                    -2.11846
                ]
            ],
            [
                [
                    -1.77437,
                    -0.18294,
                    0.42278
                ],
                [
                    -0.18306,
                    -1.56459,
                    0.2448
                ],
                [
                    0.38044,
                    0.22329,
                    -2.09422
                ]
            ],
            [
                [
                    -1.50361,
                    -0.00014,
                    -0.01228
                ],
                [
                    -0.01638,
                    -1.92459,
                    -0.50441
                ],
                [
                    -0.01604,
                    -0.45078,
                    -2.09125
                ]
            ],
            [
                [
                    -2.64965,
                    -0.00016,
                    0.02745
                ],
                [
                    -0.0,
                    -1.2184,
                    -0.0
                ],
                [
                    0.008,
                    -1e-05,
                    -1.65056
                ]
            ],
            [
                [
                    -1.50359,
                    3e-05,
                    -0.01208
                ],
                [
                    0.01638,
                    -1.92459,
                    0.50441
                ],
                [
                    -0.01602,
                    0.45079,
                    -2.09117
                ]
            ],
            [
                [
                    -1.5798,
                    -0.61358,
                    0.00451
                ],
                [
                    -0.61726,
                    -2.2917,
                    0.01527
                ],
                [
                    0.01124,
                    0.00023,
                    -1.65955
                ]
            ],
            [
                [
                    -1.57967,
                    -0.61344,
                    0.00451
                ],
                [
                    -0.61723,
                    -2.29167,
                    0.01529
                ],
                [
                    0.01121,
                    0.00023,
                    -1.65956
                ]
            ],
            [
                [
                    -1.50361,
                    0.00014,
                    -0.01228
                ],
                [
                    0.01646,
                    -1.92469,
                    0.50447
                ],
                [
                    -0.01604,
                    0.45078,
                    -2.09125
                ]
            ],
            [
                [
                    -2.64965,
                    0.00016,
                    0.02745
                ],
                [
                    -0.0,
                    -1.21827,
                    -0.0
                ],
                [
                    0.008,
                    1e-05,
                    -1.65056
                ]
            ],
            [
                [
                    -1.50359,
                    -3e-05,
                    -0.01208
                ],
                [
                    -0.01646,
                    -1.92469,
                    -0.50447
                ],
                [
                    -0.01602,
                    -0.45079,
                    -2.09117
                ]
            ],
            [
                [
                    -1.77438,
                    -0.18303,
                    0.4229
                ],
                [
                    -0.18302,
                    -1.56458,
                    0.24477
                ],
                [
                    0.38044,
                    0.22329,
                    -2.0942
                ]
            ],
            [
                [
                    -1.81827,
                    -0.17151,
                    -0.44504
                ],
                [
                    -0.18679,
                    -1.59276,
                    -0.25852
                ],
                [
                    -0.39619,
                    -0.22544,
                    -2.11841
                ]
            ],
            [
                [
                    -1.57967,
                    0.61344,
                    0.00451
                ],
                [
                    0.61726,
                    -2.2917,
                    -0.01527
                ],
                [
                    0.01121,
                    -0.00023,
                    -1.65956
                ]
            ],
            [
                [
                    -1.77438,
                    0.18303,
                    0.4229
                ],
                [
                    0.18306,
                    -1.56459,
                    -0.2448
                ],
                [
                    0.38044,
                    -0.22329,
                    -2.0942
                ]
            ],
            [
                [
                    -1.81827,
                    0.17151,
                    -0.44504
                ],
                [
                    0.18679,
                    -1.59277,
                    0.25857
                ],
                [
                    -0.39619,
                    0.22544,
                    -2.11841
                ]
            ]
        ]
    },
    "band_gap": 4.5669,
    "is_direct": false,
    "formula": "BaSiO3"
}