{
    "mp_id": "mp-7998",
    "nelements": 3,
    "nsites": 18,
    "elements": [
        "Ge",
        "Li",
        "O"
    ],
    "structure": {
        "@module": "pymatgen.core.structure",
        "@class": "Structure",
        "charge": null,
        "lattice": {
            "matrix": [
                [
                    2.99921979,
                    -7.72475025,
                    0.0
                ],
                [
                    2.99921979,
                    7.72475025,
                    0.0
                ],
                [
                    0.0,
                    0.0,
                    4.99641201
                ]
            ],
            "a": 8.286560551495578,
            "b": 8.286560551495578,
            "c": 4.99641201,
            "alpha": 90.0,
            "beta": 90.0,
            "gamma": 137.5614941544228,
            "volume": 231.51598351528793
        },
        "sites": [
            {
                "species": [
                    {
                        "element": "Li",
                        "occu": 1
                    }
                ],
                "abc": [
                    0.79456157,
                    0.905381,
                    0.39413171
                ],
                "xyz": [
                    5.0985013978074605,
                    0.8560524195973569,
                    1.9692444093658372
                ],
                "label": "Li",
                "properties": {}
            },
            {
                "species": [
                    {
                        "element": "Li",
                        "occu": 1
                    }
                ],
                "abc": [
                    0.905381,
                    0.79456157,
                    0.89413171
                ],
                "xyz": [
                    5.0985013978074605,
                    -0.8560524195973569,
                    4.467450414365837
                ],
                "label": "Li",
                "properties": {}
            },
            {
                "species": [
                    {
                        "element": "Li",
                        "occu": 1
                    }
                ],
                "abc": [
                    0.094619,
                    0.20543843,
                    0.89413171
                ],
                "xyz": [
                    0.8999381821925397,
                    0.8560524195973575,
                    4.467450414365837
                ],
                "label": "Li",
                "properties": {}
            },
            {
                "species": [
                    {
                        "element": "Li",
                        "occu": 1
                    }
                ],
                "abc": [
                    0.20543843,
                    0.094619,
                    0.39413171
                ],
                "xyz": [
                    0.8999381821925397,
                    -0.8560524195973575,
                    1.9692444093658372
                ],
                "label": "Li",
                "properties": {}
            },
            {
                "species": [
                    {
                        "element": "Ge",
                        "occu": 1
                    }
                ],
                "abc": [
                    0.51490579,
                    0.80671775,
                    0.9004994
                ],
                "xyz": [
                    3.9638394760978573,
                    2.2541745109629896,
                    4.499266017157794
                ],
                "label": "Ge",
                "properties": {}
            },
            {
                "species": [
                    {
                        "element": "Ge",
                        "occu": 1
                    }
                ],
                "abc": [
                    0.48509421,
                    0.19328225,
                    0.9004994
                ],
                "xyz": [
                    2.0346001039021435,
                    -2.25417451096299,
                    4.499266017157794
                ],
                "label": "Ge",
                "properties": {}
            },
            {
                "species": [
                    {
                        "element": "Ge",
                        "occu": 1
                    }
                ],
                "abc": [
                    0.19328225,
                    0.48509421,
                    0.4004994
                ],
                "xyz": [
                    2.0346001039021435,
                    2.25417451096299,
                    2.001060012157794
                ],
                "label": "Ge",
                "properties": {}
            },
            {
                "species": [
                    {
                        "element": "Ge",
                        "occu": 1
                    }
                ],
                "abc": [
                    0.80671775,
                    0.51490579,
                    0.4004994
                ],
                "xyz": [
                    3.9638394760978573,
                    -2.2541745109629896,
                    2.001060012157794
                ],
                "label": "Ge",
                "properties": {}
            },
            {
                "species": [
                    {
                        "element": "O",
                        "occu": 1
                    }
                ],
                "abc": [
                    0.09351444,
                    0.22472874,
                    0.50902246
                ],
                "xyz": [
                    0.9544812434885322,
                    1.0135976967285751,
                    2.5432859325037445
                ],
                "label": "O",
                "properties": {}
            },
            {
                "species": [
                    {
                        "element": "O",
                        "occu": 1
                    }
                ],
                "abc": [
                    0.22472874,
                    0.09351444,
                    0.00902246
                ],
                "xyz": [
                    0.9544812434885322,
                    -1.0135976967285751,
                    0.0450799275037446
                ],
                "label": "O",
                "properties": {}
            },
            {
                "species": [
                    {
                        "element": "O",
                        "occu": 1
                    }
                ],
                "abc": [
                    0.0,
                    0.5,
                    0.50474262
                ],
                "xyz": [
                    1.499609895,
                    3.862375125,
                    2.5219020885268666
                ],
                "label": "O",
                "properties": {}
            },
            {
                "species": [
                    {
                        "element": "O",
                        "occu": 1
                    }
                ],
                "abc": [
                    0.90648556,
                    0.77527126,
                    0.50902246
                ],
                "xyz": [
                    5.043958336511468,
                    -1.0135976967285742,
                    2.5432859325037445
                ],
                "label": "O",
                "properties": {}
            },
            {
                "species": [
                    {
                        "element": "O",
                        "occu": 1
                    }
                ],
                "abc": [
                    0.5,
                    0.0,
                    0.00474262
                ],
                "xyz": [
                    1.499609895,
                    -3.862375125,
                    0.023696083526866203
                ],
                "label": "O",
                "properties": {}
            },
            {
                "species": [
                    {
                        "element": "O",
                        "occu": 1
                    }
                ],
                "abc": [
                    0.75148202,
                    0.48212234,
                    0.04394163
                ],
                "xyz": [
                    3.6998506095422847,
                    -2.0807362554199194,
                    0.21955048787097634
                ],
                "label": "O",
                "properties": {}
            },
            {
                "species": [
                    {
                        "element": "O",
                        "occu": 1
                    }
                ],
                "abc": [
                    0.48212234,
                    0.75148202,
                    0.54394163
                ],
                "xyz": [
                    3.6998506095422847,
                    2.0807362554199194,
                    2.717756492870976
                ],
                "label": "O",
                "properties": {}
            },
            {
                "species": [
                    {
                        "element": "O",
                        "occu": 1
                    }
                ],
                "abc": [
                    0.51787766,
                    0.24851798,
                    0.54394163
                ],
                "xyz": [
                    2.2985889704577156,
                    -2.0807362554199202,
                    2.717756492870976
                ],
                "label": "O",
                "properties": {}
            },
            {
                "species": [
                    {
                        "element": "O",
                        "occu": 1
                    }
                ],
                "abc": [
                    0.24851798,
                    0.51787766,
                    0.04394163
                ],
                "xyz": [
                    2.2985889704577156,
                    2.0807362554199202,
                    0.21955048787097634
                ],
                "label": "O",
                "properties": {}
            },
            {
                "species": [
                    {
                        "element": "O",
                        "occu": 1
                    }
                ],
                "abc": [
                    0.77527126,
                    0.90648556,
                    0.00902246
                ],
                "xyz": [
                    5.043958336511468,
                    1.0135976967285742,
                    0.0450799275037446
                ],
                "label": "O",
                "properties": {}
            }
        ]
    },
    "spacegroup": {
        "source": "spglib",
        "symbol": "Ccc2",
        "number": 37,
        "point_group": "mm2",
        "crystal_system": "orthorhombic",
        "hall": "C 2 -2c"
    },
    "dielectric": {
        "epsilon_ionic": [
            [
                3.85796592,
                -0.0,
                4.7e-07
            ],
            [
                -0.0,
                2.92840071,
                -1.53e-06
            ],
            [
                4.7e-07,
                -1.53e-06,
                3.06179847
            ]
        ],
        "epsilon_ionic_avg": 3.282721700000001,
        "epsilon_ionic_eig": [
            3.8579659200002787,
            3.061798470017273,
            2.928400709982452
        ],
        "epsilon_electronic": [
            [
                2.88934268,
                0.0,
                0.0
            ],
            [
                0.0,
                2.96752527,
                0.0
            ],
            [
                0.0,
                0.0,
                3.01228182
            ]
        ],
        "epsilon_electronic_avg": 2.956383256666667,
        "epsilon_electronic_eig": [
            2.88934268,
            2.96752527,
            3.01228182
        ]
    },
    "phonon": {
        "lowest_freq": -0.09645878708584872,
        "frequency": [
            -0.09645878708584872,
            -0.09163621786482923,
            -0.05890647755939845,
            2.2675861131475177,
            2.778145916360722,
            3.0414631790477356,
            3.0615767857025418,
            4.369449030623525,
            4.578299678158999,
            4.887174859141852,
            5.5276908251074515,
            6.184006940919458,
            6.41504784208501,
            6.773254554982239,
            7.117159453837705,
            7.446955200980118,
            7.588791136735119,
            8.177124882551434,
            8.288583306893937,
            8.752870693136844,
            8.754185203429783,
            8.85023314438624,
            9.120033007437403,
            9.96653574639094,
            10.172858896087636,
            10.952337774121448,
            11.16109640361755,
            11.23079598438575,
            11.863684576209748,
            12.359314283684313,
            12.756023292947685,
            13.02400877496939,
            13.037566657535594,
            13.137628070214484,
            13.303417497761238,
            13.816947291571939,
            13.980613570688808,
            14.511867061468031,
            15.4384489885322,
            15.478556886722822,
            15.627913866867441,
            16.33836564044652,
            17.346520215486184,
            17.401752186555978,
            21.755543639020107,
            21.867467698633835,
            22.92660388052935,
            23.54191655405448,
            24.037386825500953,
            24.202625842687947,
            24.96702432946575,
            25.793908380213036,
            27.436331434493983,
            28.537313247991957
        ]
    },
    "born_effective_charge": {
        "avg_abs_trace": 1.9093188888888888,
        "tensors": [
            [
                [
                    1.10104,
                    0.04105,
                    0.03007
                ],
                [
                    0.01195,
                    1.12506,
                    0.08674
                ],
                [
                    -0.08607,
                    -0.05142,
                    1.02698
                ]
            ],
            [
                [
                    1.10104,
                    -0.04105,
                    0.03007
                ],
                [
                    -0.01195,
                    1.12506,
                    -0.08676
                ],
                [
                    -0.08607,
                    0.05142,
                    1.02698
                ]
            ],
            [
                [
                    1.10104,
                    -0.04105,
                    -0.03007
                ],
                [
                    -0.01195,
                    1.12506,
                    0.08674
                ],
                [
                    0.08607,
                    -0.05142,
                    1.02698
                ]
            ],
            [
                [
                    1.10104,
                    0.04105,
                    -0.03007
                ],
                [
                    0.01195,
                    1.12506,
                    -0.08676
                ],
                [
                    0.08607,
                    0.05142,
                    1.02698
                ]
            ],
            [
                [
                    3.04936,
                    -0.27493,
                    0.52189
                ],
                [
                    -0.03508,
                    3.22675,
                    -0.19223
                ],
                [
                    -0.49058,
                    0.04098,
                    3.35872
                ]
            ],
            [
                [
                    3.04936,
                    -0.27493,
                    -0.52189
                ],
                [
                    -0.03509,
                    3.22674,
                    0.19223
                ],
                [
                    0.49058,
                    -0.04098,
                    3.35872
                ]
            ],
            [
                [
                    3.04936,
                    0.27493,
                    -0.52189
                ],
                [
                    0.03508,
                    3.22675,
                    -0.19223
                ],
                [
                    0.49058,
                    0.04098,
                    3.35872
                ]
            ],
            [
                [
                    3.04936,
                    0.27493,
                    0.52189
                ],
                [
                    0.03509,
                    3.22674,
                    0.19223
                ],
                [
                    -0.49058,
                    -0.04098,
                    3.35872
                ]
            ],
            [
                [
                    -1.66652,
                    0.35052,
                    0.13633
                ],
                [
                    0.39312,
                    -1.81323,
                    -0.1218
                ],
                [
                    -0.01557,
                    -0.06923,
                    -1.48452
                ]
            ],
            [
                [
                    -1.66652,
                    -0.35052,
                    0.13633
                ],
                [
                    -0.39316,
                    -1.81326,
                    0.12179
                ],
                [
                    -0.01557,
                    0.06923,
                    -1.48452
                ]
            ],
            [
                [
                    -1.2546,
                    -0.9015,
                    -0.0
                ],
                [
                    -0.6422,
                    -2.90804,
                    -1e-05
                ],
                [
                    0.0,
                    0.0,
                    -1.05184
                ]
            ],
            [
                [
                    -1.66652,
                    0.35052,
                    -0.13633
                ],
                [
                    0.39316,
                    -1.81326,
                    0.12179
                ],
                [
                    0.01557,
                    0.06923,
                    -1.48452
                ]
            ],
            [
                [
                    -1.2546,
                    0.9015,
                    -0.0
                ],
                [
                    0.6422,
                    -2.90804,
                    -1e-05
                ],
                [
                    0.0,
                    0.0,
                    -1.05184
                ]
            ],
            [
                [
                    -1.85658,
                    0.13347,
                    -0.63368
                ],
                [
                    0.14111,
                    -1.08453,
                    -0.06491
                ],
                [
                    -0.66723,
                    -0.09078,
                    -2.37526
                ]
            ],
            [
                [
                    -1.85658,
                    -0.13347,
                    -0.63368
                ],
                [
                    -0.14111,
                    -1.08454,
                    0.06495
                ],
                [
                    -0.66723,
                    0.09078,
                    -2.37526
                ]
            ],
            [
                [
                    -1.85658,
                    -0.13347,
                    0.63368
                ],
                [
                    -0.14111,
                    -1.08453,
                    -0.06491
                ],
                [
                    0.66723,
                    -0.09078,
                    -2.37526
                ]
            ],
            [
                [
                    -1.85658,
                    0.13347,
                    0.63368
                ],
                [
                    0.14111,
                    -1.08454,
                    0.06495
                ],
                [
                    0.66723,
                    0.09078,
                    -2.37526
                ]
            ],
            [
                [
                    -1.66652,
                    -0.35052,
                    -0.13633
                ],
                [
                    -0.39312,
                    -1.81323,
                    -0.1218
                ],
                [
                    0.01557,
                    -0.06923,
                    -1.48452
                ]
            ]
        ]
    },
    "band_gap": 3.1031000000000004,
    "is_direct": false,
    "formula": "Li2Ge2O5"
}