{
    "mp_id": "mp-753802",
    "nelements": 3,
    "nsites": 11,
    "elements": [
        "O",
        "Sc",
        "Ti"
    ],
    "structure": {
        "@module": "pymatgen.core.structure",
        "@class": "Structure",
        "charge": null,
        "lattice": {
            "matrix": [
                [
                    3.17245589,
                    -4.45577802,
                    -0.00027523
                ],
                [
                    3.17245589,
                    4.45577802,
                    -0.00027523
                ],
                [
                    -0.87107021,
                    0.0,
                    5.16237078
                ]
            ],
            "a": 5.469774603515429,
            "b": 5.469774603515429,
            "c": 5.235344819679717,
            "alpha": 95.54060230710819,
            "beta": 95.54060230710819,
            "gamma": 109.09925851639161,
            "volume": 145.9459242451095
        },
        "sites": [
            {
                "species": [
                    {
                        "element": "Sc",
                        "occu": 1
                    }
                ],
                "abc": [
                    0.3125788,
                    0.6874212,
                    0.0
                ],
                "xyz": [
                    3.17245589,
                    1.670214526884048,
                    -0.00027523
                ],
                "label": "Sc",
                "properties": {}
            },
            {
                "species": [
                    {
                        "element": "Sc",
                        "occu": 1
                    }
                ],
                "abc": [
                    0.6874212,
                    0.3125788,
                    0.0
                ],
                "xyz": [
                    3.17245589,
                    -1.670214526884048,
                    -0.00027523
                ],
                "label": "Sc",
                "properties": {}
            },
            {
                "species": [
                    {
                        "element": "Ti",
                        "occu": 1
                    }
                ],
                "abc": [
                    0.25989105,
                    0.25989105,
                    0.39218398
                ],
                "xyz": [
                    1.3073660028443335,
                    0.0,
                    2.0244560591087213
                ],
                "label": "Ti",
                "properties": {}
            },
            {
                "species": [
                    {
                        "element": "Ti",
                        "occu": 1
                    }
                ],
                "abc": [
                    0.74010895,
                    0.74010895,
                    0.60781602
                ],
                "xyz": [
                    4.166475567155667,
                    0.0,
                    3.1373642608912786
                ],
                "label": "Ti",
                "properties": {}
            },
            {
                "species": [
                    {
                        "element": "O",
                        "occu": 1
                    }
                ],
                "abc": [
                    0.40447557,
                    0.05191251,
                    0.19595117
                ],
                "xyz": [
                    1.2771838257201458,
                    -1.5709427334119412,
                    1.0114469826235541
                ],
                "label": "O",
                "properties": {}
            },
            {
                "species": [
                    {
                        "element": "O",
                        "occu": 1
                    }
                ],
                "abc": [
                    0.05191251,
                    0.40447557,
                    0.19595117
                ],
                "xyz": [
                    1.2771838257201458,
                    1.5709427334119412,
                    1.0114469826235541
                ],
                "label": "O",
                "properties": {}
            },
            {
                "species": [
                    {
                        "element": "O",
                        "occu": 1
                    }
                ],
                "abc": [
                    0.43780994,
                    0.43780994,
                    0.73576897
                ],
                "xyz": [
                    2.1369590144977098,
                    0.0,
                    3.798071234699124
                ],
                "label": "O",
                "properties": {}
            },
            {
                "species": [
                    {
                        "element": "O",
                        "occu": 1
                    }
                ],
                "abc": [
                    0.0,
                    0.0,
                    0.5
                ],
                "xyz": [
                    -0.435535105,
                    0.0,
                    2.58118539
                ],
                "label": "O",
                "properties": {}
            },
            {
                "species": [
                    {
                        "element": "O",
                        "occu": 1
                    }
                ],
                "abc": [
                    0.56219006,
                    0.56219006,
                    0.26423103
                ],
                "xyz": [
                    3.336882555502291,
                    0.0,
                    1.3637490853008756
                ],
                "label": "O",
                "properties": {}
            },
            {
                "species": [
                    {
                        "element": "O",
                        "occu": 1
                    }
                ],
                "abc": [
                    0.94808749,
                    0.59552443,
                    0.80404883
                ],
                "xyz": [
                    4.196657744279855,
                    -1.570942733411942,
                    4.150373337376446
                ],
                "label": "O",
                "properties": {}
            },
            {
                "species": [
                    {
                        "element": "O",
                        "occu": 1
                    }
                ],
                "abc": [
                    0.59552443,
                    0.94808749,
                    0.80404883
                ],
                "xyz": [
                    4.196657744279855,
                    1.570942733411942,
                    4.150373337376446
                ],
                "label": "O",
                "properties": {}
            }
        ]
    },
    "spacegroup": {
        "source": "spglib",
        "symbol": "C2/m",
        "number": 12,
        "point_group": "2/m",
        "crystal_system": "monoclinic",
        "hall": "-C 2y"
    },
    "dielectric": {
        "epsilon_ionic": [
            [
                12.28335875,
                -0.0,
                -2.03595559
            ],
            [
                -0.0,
                8.23758085,
                0.0
            ],
            [
                -2.03595559,
                0.0,
                10.19541793
            ]
        ],
        "epsilon_ionic_avg": 10.238785843333334,
        "epsilon_ionic_eig": [
            13.5273982572442,
            8.951378422755798,
            8.23758085
        ],
        "epsilon_electronic": [
            [
                5.06901884,
                0.0,
                -0.18103295
            ],
            [
                0.0,
                4.5684511,
                0.0
            ],
            [
                -0.18104036,
                0.0,
                4.55031342
            ]
        ],
        "epsilon_electronic_avg": 4.72926112,
        "epsilon_electronic_eig": [
            5.125954129494458,
            4.493378130505542,
            4.5684511
        ]
    },
    "phonon": {
        "lowest_freq": -0.04833001457461901,
        "frequency": [
            -0.04833001457461901,
            -0.03378987821678794,
            -0.02208141639041842,
            2.666925910845146,
            3.8765277686143635,
            4.219461121276671,
            6.081104018502939,
            6.2468033388849085,
            6.250512330587718,
            6.451459613061652,
            7.071591248599839,
            7.098638625833217,
            8.822509775802414,
            9.996580150362062,
            10.120863411483136,
            10.135608301395102,
            10.384932009296667,
            10.549850912116094,
            11.188386338342966,
            11.587827529085356,
            12.323135752814572,
            12.345232907815797,
            13.146569101695704,
            13.499954276028545,
            15.018564427503982,
            15.633672192208335,
            16.68176548349697,
            19.055725066229467,
            19.120239948393174,
            20.370380152751434,
            21.840787599986324,
            24.087737134852816,
            26.412796009759727
        ]
    },
    "born_effective_charge": {
        "avg_abs_trace": 3.321137575757575,
        "tensors": [
            [
                [
                    4.21461,
                    5e-05,
                    0.0135
                ],
                [
                    0.0,
                    4.20852,
                    0.0
                ],
                [
                    0.16673,
                    -0.00021,
                    4.01182
                ]
            ],
            [
                [
                    4.21461,
                    -5e-05,
                    0.0135
                ],
                [
                    0.0,
                    4.2084,
                    0.0
                ],
                [
                    0.16673,
                    0.00021,
                    4.01182
                ]
            ],
            [
                [
                    6.046,
                    0.0,
                    -0.50839
                ],
                [
                    3e-05,
                    4.3611,
                    9e-05
                ],
                [
                    -0.66477,
                    0.0,
                    4.55726
                ]
            ],
            [
                [
                    6.04596,
                    0.0,
                    -0.50846
                ],
                [
                    -3e-05,
                    4.3611,
                    -9e-05
                ],
                [
                    -0.66479,
                    0.0,
                    4.55758
                ]
            ],
            [
                [
                    -2.29087,
                    -0.31575,
                    0.20162
                ],
                [
                    -0.50146,
                    -3.07393,
                    -1.65163
                ],
                [
                    -0.03262,
                    -1.62388,
                    -2.20693
                ]
            ],
            [
                [
                    -2.29087,
                    0.31575,
                    0.20162
                ],
                [
                    0.50157,
                    -3.07406,
                    1.65165
                ],
                [
                    -0.03262,
                    1.62388,
                    -2.20693
                ]
            ],
            [
                [
                    -2.54224,
                    0.0,
                    -0.74949
                ],
                [
                    0.00013,
                    -1.99045,
                    0.00017
                ],
                [
                    -0.52491,
                    0.0,
                    -3.36217
                ]
            ],
            [
                [
                    -6.27337,
                    0.0,
                    1.68203
                ],
                [
                    0.0,
                    -0.86225,
                    0.0
                ],
                [
                    2.17714,
                    0.0,
                    -1.58579
                ]
            ],
            [
                [
                    -2.54208,
                    0.0,
                    -0.74933
                ],
                [
                    -0.00013,
                    -1.99045,
                    -0.00017
                ],
                [
                    -0.52531,
                    0.0,
                    -3.36244
                ]
            ],
            [
                [
                    -2.29087,
                    0.31572,
                    0.20169
                ],
                [
                    0.50146,
                    -3.07393,
                    1.65163
                ],
                [
                    -0.03279,
                    1.62383,
                    -2.2071
                ]
            ],
            [
                [
                    -2.29087,
                    -0.31572,
                    0.20169
                ],
                [
                    -0.50157,
                    -3.07406,
                    -1.65165
                ],
                [
                    -0.03279,
                    -1.62383,
                    -2.2071
                ]
            ]
        ]
    },
    "band_gap": 3.5379,
    "is_direct": false,
    "formula": "Sc2Ti2O7"
}