{
    "mp_id": "mp-772290",
    "nelements": 3,
    "nsites": 12,
    "elements": [
        "Ag",
        "Li",
        "O"
    ],
    "structure": {
        "@module": "pymatgen.core.structure",
        "@class": "Structure",
        "charge": null,
        "lattice": {
            "matrix": [
                [
                    -4.53685134,
                    4.53685134,
                    1.8891126
                ],
                [
                    4.53685134,
                    -4.53685134,
                    1.8891126
                ],
                [
                    4.53685134,
                    4.53685134,
                    -1.8891126
                ]
            ],
            "a": 6.688406878921045,
            "b": 6.688406878921045,
            "c": 6.688406878921045,
            "alpha": 94.57566987586623,
            "beta": 94.57566987586623,
            "gamma": 147.18753283980053,
            "volume": 155.53457032624362
        },
        "sites": [
            {
                "species": [
                    {
                        "element": "Li",
                        "occu": 1
                    }
                ],
                "abc": [
                    0.5,
                    0.13752185,
                    0.63752185
                ],
                "xyz": [
                    1.2478323789035577,
                    4.53685134,
                    0.0
                ],
                "label": "Li",
                "properties": {}
            },
            {
                "species": [
                    {
                        "element": "Li",
                        "occu": 1
                    }
                ],
                "abc": [
                    0.13752185,
                    0.5,
                    0.63752185
                ],
                "xyz": [
                    4.53685134,
                    1.2478323789035577,
                    0.0
                ],
                "label": "Li",
                "properties": {}
            },
            {
                "species": [
                    {
                        "element": "Li",
                        "occu": 1
                    }
                ],
                "abc": [
                    0.86247815,
                    0.5,
                    0.36247815
                ],
                "xyz": [
                    -4.440892098500626e-16,
                    3.2890189610964424,
                    1.8891126000000003
                ],
                "label": "Li",
                "properties": {}
            },
            {
                "species": [
                    {
                        "element": "Li",
                        "occu": 1
                    }
                ],
                "abc": [
                    0.5,
                    0.86247815,
                    0.36247815
                ],
                "xyz": [
                    3.2890189610964424,
                    -4.440892098500626e-16,
                    1.8891126000000003
                ],
                "label": "Li",
                "properties": {}
            },
            {
                "species": [
                    {
                        "element": "Ag",
                        "occu": 1
                    }
                ],
                "abc": [
                    0.16178725,
                    0.83821275,
                    0.0
                ],
                "xyz": [
                    3.0688419360851698,
                    -3.0688419360851698,
                    1.8891126
                ],
                "label": "Ag",
                "properties": {}
            },
            {
                "species": [
                    {
                        "element": "Ag",
                        "occu": 1
                    }
                ],
                "abc": [
                    0.83821275,
                    0.83821275,
                    0.6764255
                ],
                "xyz": [
                    3.06884193608517,
                    3.06884193608517,
                    1.8891126
                ],
                "label": "Ag",
                "properties": {}
            },
            {
                "species": [
                    {
                        "element": "Ag",
                        "occu": 1
                    }
                ],
                "abc": [
                    0.83821275,
                    0.16178725,
                    0.0
                ],
                "xyz": [
                    -3.0688419360851698,
                    3.0688419360851698,
                    1.8891126
                ],
                "label": "Ag",
                "properties": {}
            },
            {
                "species": [
                    {
                        "element": "Ag",
                        "occu": 1
                    }
                ],
                "abc": [
                    0.16178725,
                    0.16178725,
                    0.3235745
                ],
                "xyz": [
                    1.46800940391483,
                    1.46800940391483,
                    0.0
                ],
                "label": "Ag",
                "properties": {}
            },
            {
                "species": [
                    {
                        "element": "O",
                        "occu": 1
                    }
                ],
                "abc": [
                    0.0,
                    0.67891558,
                    0.67891558
                ],
                "xyz": [
                    6.160278117739754,
                    0.0,
                    0.0
                ],
                "label": "O",
                "properties": {}
            },
            {
                "species": [
                    {
                        "element": "O",
                        "occu": 1
                    }
                ],
                "abc": [
                    0.67891558,
                    0.0,
                    0.67891558
                ],
                "xyz": [
                    0.0,
                    6.160278117739754,
                    0.0
                ],
                "label": "O",
                "properties": {}
            },
            {
                "species": [
                    {
                        "element": "O",
                        "occu": 1
                    }
                ],
                "abc": [
                    0.32108442,
                    0.0,
                    0.32108442
                ],
                "xyz": [
                    0.0,
                    2.9134245622602455,
                    0.0
                ],
                "label": "O",
                "properties": {}
            },
            {
                "species": [
                    {
                        "element": "O",
                        "occu": 1
                    }
                ],
                "abc": [
                    0.0,
                    0.32108442,
                    0.32108442
                ],
                "xyz": [
                    2.9134245622602455,
                    0.0,
                    0.0
                ],
                "label": "O",
                "properties": {}
            }
        ]
    },
    "spacegroup": {
        "source": "spglib",
        "symbol": "I4/mmm",
        "number": 139,
        "point_group": "4/mmm",
        "crystal_system": "tetragonal",
        "hall": "-I 4 2"
    },
    "dielectric": {
        "epsilon_ionic": [
            [
                3.17826104,
                1e-08,
                -1e-08
            ],
            [
                1e-08,
                3.1782714,
                -1e-08
            ],
            [
                -1e-08,
                -1e-08,
                1.24425478
            ]
        ],
        "epsilon_ionic_avg": 2.5335957400000004,
        "epsilon_ionic_eig": [
            3.1782610399903484,
            3.178271400009653,
            1.24425478
        ],
        "epsilon_electronic": [
            [
                5.21951285,
                0.0,
                0.0
            ],
            [
                0.0,
                5.21951285,
                0.0
            ],
            [
                0.0,
                -0.0,
                4.3797708
            ]
        ],
        "epsilon_electronic_avg": 4.939598833333334,
        "epsilon_electronic_eig": [
            5.21951285,
            5.21951285,
            4.3797708
        ]
    },
    "phonon": {
        "lowest_freq": -0.009064734597152008,
        "frequency": [
            -0.009064734597152008,
            -0.009064734597152008,
            -0.008657465786774692,
            1.8965491336289102,
            2.1451013325666257,
            2.3776503167099627,
            2.3776503167099627,
            2.51698826644325,
            2.8909380830651745,
            2.8909380830651745,
            3.086542098369944,
            3.1514541191632883,
            5.082847884507453,
            6.942427169679949,
            7.290364282095292,
            7.290364282095292,
            9.284650764221153,
            9.402597495882741,
            9.402597495882741,
            10.029006929212935,
            10.029006929212935,
            10.340495782121838,
            11.7409496080304,
            13.089577089730868,
            13.186338450578392,
            13.186338450578392,
            13.237640635240249,
            13.970950617709876,
            14.135972616196465,
            14.135972616196465,
            14.257099640166205,
            16.394277679637604,
            16.418862903224042,
            17.12027798632587,
            17.12027798632587,
            18.476001146882528
        ]
    },
    "born_effective_charge": {
        "avg_abs_trace": 1.2128658333333333,
        "tensors": [
            [
                [
                    0.89018,
                    0.0,
                    0.0
                ],
                [
                    2e-05,
                    1.22808,
                    -0.0
                ],
                [
                    -6e-05,
                    -0.0,
                    1.08546
                ]
            ],
            [
                [
                    1.22808,
                    8e-05,
                    0.0
                ],
                [
                    0.0,
                    0.89015,
                    0.0
                ],
                [
                    0.0,
                    -6e-05,
                    1.08546
                ]
            ],
            [
                [
                    1.22808,
                    -8e-05,
                    0.0
                ],
                [
                    0.0,
                    0.89009,
                    -0.0
                ],
                [
                    0.0,
                    6e-05,
                    1.08546
                ]
            ],
            [
                [
                    0.89006,
                    0.0,
                    0.0
                ],
                [
                    -2e-05,
                    1.22808,
                    -0.0
                ],
                [
                    6e-05,
                    0.0,
                    1.08546
                ]
            ],
            [
                [
                    1.02214,
                    0.67521,
                    -0.0
                ],
                [
                    0.67528,
                    1.02205,
                    -0.0
                ],
                [
                    -6e-05,
                    6e-05,
                    0.21001
                ]
            ],
            [
                [
                    1.02214,
                    -0.67521,
                    -0.0
                ],
                [
                    -0.67527,
                    1.02218,
                    0.0
                ],
                [
                    -6e-05,
                    -6e-05,
                    0.21001
                ]
            ],
            [
                [
                    1.02208,
                    0.67533,
                    0.0
                ],
                [
                    0.67527,
                    1.02218,
                    -0.0
                ],
                [
                    6e-05,
                    -6e-05,
                    0.21001
                ]
            ],
            [
                [
                    1.02208,
                    -0.67533,
                    -0.0
                ],
                [
                    -0.67528,
                    1.02205,
                    -0.0
                ],
                [
                    6e-05,
                    6e-05,
                    0.21001
                ]
            ],
            [
                [
                    -1.73971,
                    0.0,
                    0.0
                ],
                [
                    -7e-05,
                    -2.42271,
                    -0.0
                ],
                [
                    2e-05,
                    0.0,
                    -1.29547
                ]
            ],
            [
                [
                    -2.42271,
                    0.0001,
                    -0.0
                ],
                [
                    0.0,
                    -1.73973,
                    0.0
                ],
                [
                    0.0,
                    2e-05,
                    -1.29547
                ]
            ],
            [
                [
                    -2.42271,
                    -0.0001,
                    -0.0
                ],
                [
                    -0.0,
                    -1.73971,
                    -0.0
                ],
                [
                    0.0,
                    -2e-05,
                    -1.29547
                ]
            ],
            [
                [
                    -1.73972,
                    -0.0,
                    0.0
                ],
                [
                    7e-05,
                    -2.42271,
                    0.0
                ],
                [
                    -2e-05,
                    0.0,
                    -1.29547
                ]
            ]
        ]
    },
    "band_gap": 1.3530999999999995,
    "is_direct": false,
    "formula": "LiAgO"
}