{
    "mp_id": "mp-778602",
    "nelements": 3,
    "nsites": 36,
    "elements": [
        "Ba",
        "Ge",
        "O"
    ],
    "structure": {
        "@module": "pymatgen.core.structure",
        "@class": "Structure",
        "charge": null,
        "lattice": {
            "matrix": [
                [
                    7.32583263,
                    0.0,
                    0.0
                ],
                [
                    0.0,
                    7.32583263,
                    0.0
                ],
                [
                    0.0,
                    0.0,
                    11.73218264
                ]
            ],
            "a": 7.32583263,
            "b": 7.32583263,
            "c": 11.73218264,
            "alpha": 90.0,
            "beta": 90.0,
            "gamma": 90.0,
            "volume": 629.6407098068942
        },
        "sites": [
            {
                "species": [
                    {
                        "element": "Ba",
                        "occu": 1
                    }
                ],
                "abc": [
                    0.0,
                    0.5,
                    0.99974745
                ],
                "xyz": [
                    0.0,
                    3.662916315,
                    11.729219677274267
                ],
                "label": "Ba",
                "properties": {}
            },
            {
                "species": [
                    {
                        "element": "Ba",
                        "occu": 1
                    }
                ],
                "abc": [
                    0.0,
                    0.5,
                    0.49974745
                ],
                "xyz": [
                    0.0,
                    3.662916315,
                    5.863128357274268
                ],
                "label": "Ba",
                "properties": {}
            },
            {
                "species": [
                    {
                        "element": "Ba",
                        "occu": 1
                    }
                ],
                "abc": [
                    0.18310481,
                    0.81689519,
                    0.75
                ],
                "xyz": [
                    1.3413951918079503,
                    5.9844374381920495,
                    8.79913698
                ],
                "label": "Ba",
                "properties": {}
            },
            {
                "species": [
                    {
                        "element": "Ba",
                        "occu": 1
                    }
                ],
                "abc": [
                    0.18310481,
                    0.18310481,
                    0.25
                ],
                "xyz": [
                    1.3413951918079503,
                    1.3413951918079503,
                    2.93304566
                ],
                "label": "Ba",
                "properties": {}
            },
            {
                "species": [
                    {
                        "element": "Ba",
                        "occu": 1
                    }
                ],
                "abc": [
                    0.31689519,
                    0.31689519,
                    0.75
                ],
                "xyz": [
                    2.3215211231920496,
                    2.3215211231920496,
                    8.79913698
                ],
                "label": "Ba",
                "properties": {}
            },
            {
                "species": [
                    {
                        "element": "Ba",
                        "occu": 1
                    }
                ],
                "abc": [
                    0.31689519,
                    0.68310481,
                    0.25
                ],
                "xyz": [
                    2.3215211231920496,
                    5.004311506807951,
                    2.93304566
                ],
                "label": "Ba",
                "properties": {}
            },
            {
                "species": [
                    {
                        "element": "Ba",
                        "occu": 1
                    }
                ],
                "abc": [
                    0.5,
                    0.0,
                    0.00025255
                ],
                "xyz": [
                    3.662916315,
                    0.0,
                    0.0029629627257319996
                ],
                "label": "Ba",
                "properties": {}
            },
            {
                "species": [
                    {
                        "element": "Ba",
                        "occu": 1
                    }
                ],
                "abc": [
                    0.5,
                    0.0,
                    0.50025255
                ],
                "xyz": [
                    3.662916315,
                    0.0,
                    5.869054282725732
                ],
                "label": "Ba",
                "properties": {}
            },
            {
                "species": [
                    {
                        "element": "Ba",
                        "occu": 1
                    }
                ],
                "abc": [
                    0.68310481,
                    0.31689519,
                    0.25
                ],
                "xyz": [
                    5.004311506807951,
                    2.3215211231920496,
                    2.93304566
                ],
                "label": "Ba",
                "properties": {}
            },
            {
                "species": [
                    {
                        "element": "Ba",
                        "occu": 1
                    }
                ],
                "abc": [
                    0.68310481,
                    0.68310481,
                    0.75
                ],
                "xyz": [
                    5.004311506807951,
                    5.004311506807951,
                    8.79913698
                ],
                "label": "Ba",
                "properties": {}
            },
            {
                "species": [
                    {
                        "element": "Ba",
                        "occu": 1
                    }
                ],
                "abc": [
                    0.81689519,
                    0.81689519,
                    0.25
                ],
                "xyz": [
                    5.9844374381920495,
                    5.9844374381920495,
                    2.93304566
                ],
                "label": "Ba",
                "properties": {}
            },
            {
                "species": [
                    {
                        "element": "Ba",
                        "occu": 1
                    }
                ],
                "abc": [
                    0.81689519,
                    0.18310481,
                    0.75
                ],
                "xyz": [
                    5.9844374381920495,
                    1.3413951918079503,
                    8.79913698
                ],
                "label": "Ba",
                "properties": {}
            },
            {
                "species": [
                    {
                        "element": "Ge",
                        "occu": 1
                    }
                ],
                "abc": [
                    0.0,
                    0.0,
                    0.0
                ],
                "xyz": [
                    0.0,
                    0.0,
                    0.0
                ],
                "label": "Ge",
                "properties": {}
            },
            {
                "species": [
                    {
                        "element": "Ge",
                        "occu": 1
                    }
                ],
                "abc": [
                    0.0,
                    0.0,
                    0.5
                ],
                "xyz": [
                    0.0,
                    0.0,
                    5.86609132
                ],
                "label": "Ge",
                "properties": {}
            },
            {
                "species": [
                    {
                        "element": "Ge",
                        "occu": 1
                    }
                ],
                "abc": [
                    0.5,
                    0.5,
                    0.0
                ],
                "xyz": [
                    3.662916315,
                    3.662916315,
                    0.0
                ],
                "label": "Ge",
                "properties": {}
            },
            {
                "species": [
                    {
                        "element": "Ge",
                        "occu": 1
                    }
                ],
                "abc": [
                    0.5,
                    0.5,
                    0.5
                ],
                "xyz": [
                    3.662916315,
                    3.662916315,
                    5.86609132
                ],
                "label": "Ge",
                "properties": {}
            },
            {
                "species": [
                    {
                        "element": "O",
                        "occu": 1
                    }
                ],
                "abc": [
                    0.0,
                    0.5,
                    0.22216231
                ],
                "xyz": [
                    0.0,
                    3.662916315,
                    2.6064487966442984
                ],
                "label": "O",
                "properties": {}
            },
            {
                "species": [
                    {
                        "element": "O",
                        "occu": 1
                    }
                ],
                "abc": [
                    0.0,
                    0.5,
                    0.72216231
                ],
                "xyz": [
                    0.0,
                    3.662916315,
                    8.472540116644298
                ],
                "label": "O",
                "properties": {}
            },
            {
                "species": [
                    {
                        "element": "O",
                        "occu": 1
                    }
                ],
                "abc": [
                    0.11305937,
                    0.84373827,
                    0.40580609
                ],
                "xyz": [
                    0.8282540218732432,
                    6.18108534954575,
                    4.7609911643042775
                ],
                "label": "O",
                "properties": {}
            },
            {
                "species": [
                    {
                        "element": "O",
                        "occu": 1
                    }
                ],
                "abc": [
                    0.11305937,
                    0.15626173,
                    0.90580609
                ],
                "xyz": [
                    0.8282540218732432,
                    1.1447472804542498,
                    10.627082484304278
                ],
                "label": "O",
                "properties": {}
            },
            {
                "species": [
                    {
                        "element": "O",
                        "occu": 1
                    }
                ],
                "abc": [
                    0.15626173,
                    0.11305937,
                    0.59419391
                ],
                "xyz": [
                    1.1447472804542498,
                    0.8282540218732432,
                    6.971191475695722
                ],
                "label": "O",
                "properties": {}
            },
            {
                "species": [
                    {
                        "element": "O",
                        "occu": 1
                    }
                ],
                "abc": [
                    0.15626173,
                    0.88694063,
                    0.09419391
                ],
                "xyz": [
                    1.1447472804542498,
                    6.497578608126757,
                    1.1051001556957225
                ],
                "label": "O",
                "properties": {}
            },
            {
                "species": [
                    {
                        "element": "O",
                        "occu": 1
                    }
                ],
                "abc": [
                    0.34373827,
                    0.61305937,
                    0.90580609
                ],
                "xyz": [
                    2.51816903454575,
                    4.4911703368732425,
                    10.627082484304278
                ],
                "label": "O",
                "properties": {}
            },
            {
                "species": [
                    {
                        "element": "O",
                        "occu": 1
                    }
                ],
                "abc": [
                    0.34373827,
                    0.38694063,
                    0.40580609
                ],
                "xyz": [
                    2.51816903454575,
                    2.834662293126757,
                    4.7609911643042775
                ],
                "label": "O",
                "properties": {}
            },
            {
                "species": [
                    {
                        "element": "O",
                        "occu": 1
                    }
                ],
                "abc": [
                    0.38694063,
                    0.34373827,
                    0.09419391
                ],
                "xyz": [
                    2.834662293126757,
                    2.51816903454575,
                    1.1051001556957225
                ],
                "label": "O",
                "properties": {}
            },
            {
                "species": [
                    {
                        "element": "O",
                        "occu": 1
                    }
                ],
                "abc": [
                    0.38694063,
                    0.65626173,
                    0.59419391
                ],
                "xyz": [
                    2.834662293126757,
                    4.80766359545425,
                    6.971191475695722
                ],
                "label": "O",
                "properties": {}
            },
            {
                "species": [
                    {
                        "element": "O",
                        "occu": 1
                    }
                ],
                "abc": [
                    0.5,
                    0.0,
                    0.27783769
                ],
                "xyz": [
                    3.662916315,
                    0.0,
                    3.259642523355702
                ],
                "label": "O",
                "properties": {}
            },
            {
                "species": [
                    {
                        "element": "O",
                        "occu": 1
                    }
                ],
                "abc": [
                    0.5,
                    0.0,
                    0.77783769
                ],
                "xyz": [
                    3.662916315,
                    0.0,
                    9.125733843355702
                ],
                "label": "O",
                "properties": {}
            },
            {
                "species": [
                    {
                        "element": "O",
                        "occu": 1
                    }
                ],
                "abc": [
                    0.61305937,
                    0.34373827,
                    0.59419391
                ],
                "xyz": [
                    4.4911703368732425,
                    2.51816903454575,
                    6.971191475695722
                ],
                "label": "O",
                "properties": {}
            },
            {
                "species": [
                    {
                        "element": "O",
                        "occu": 1
                    }
                ],
                "abc": [
                    0.61305937,
                    0.65626173,
                    0.09419391
                ],
                "xyz": [
                    4.4911703368732425,
                    4.80766359545425,
                    1.1051001556957225
                ],
                "label": "O",
                "properties": {}
            },
            {
                "species": [
                    {
                        "element": "O",
                        "occu": 1
                    }
                ],
                "abc": [
                    0.65626173,
                    0.61305937,
                    0.40580609
                ],
                "xyz": [
                    4.80766359545425,
                    4.4911703368732425,
                    4.7609911643042775
                ],
                "label": "O",
                "properties": {}
            },
            {
                "species": [
                    {
                        "element": "O",
                        "occu": 1
                    }
                ],
                "abc": [
                    0.65626173,
                    0.38694063,
                    0.90580609
                ],
                "xyz": [
                    4.80766359545425,
                    2.834662293126757,
                    10.627082484304278
                ],
                "label": "O",
                "properties": {}
            },
            {
                "species": [
                    {
                        "element": "O",
                        "occu": 1
                    }
                ],
                "abc": [
                    0.84373827,
                    0.88694063,
                    0.59419391
                ],
                "xyz": [
                    6.18108534954575,
                    6.497578608126757,
                    6.971191475695722
                ],
                "label": "O",
                "properties": {}
            },
            {
                "species": [
                    {
                        "element": "O",
                        "occu": 1
                    }
                ],
                "abc": [
                    0.84373827,
                    0.11305937,
                    0.09419391
                ],
                "xyz": [
                    6.18108534954575,
                    0.8282540218732432,
                    1.1051001556957225
                ],
                "label": "O",
                "properties": {}
            },
            {
                "species": [
                    {
                        "element": "O",
                        "occu": 1
                    }
                ],
                "abc": [
                    0.88694063,
                    0.15626173,
                    0.40580609
                ],
                "xyz": [
                    6.497578608126757,
                    1.1447472804542498,
                    4.7609911643042775
                ],
                "label": "O",
                "properties": {}
            },
            {
                "species": [
                    {
                        "element": "O",
                        "occu": 1
                    }
                ],
                "abc": [
                    0.88694063,
                    0.84373827,
                    0.90580609
                ],
                "xyz": [
                    6.497578608126757,
                    6.18108534954575,
                    10.627082484304278
                ],
                "label": "O",
                "properties": {}
            }
        ]
    },
    "spacegroup": {
        "source": "spglib",
        "symbol": "P4/ncc",
        "number": 130,
        "point_group": "4/mmm",
        "crystal_system": "tetragonal",
        "hall": "P 4ab 2n -1ab"
    },
    "dielectric": {
        "epsilon_ionic": [
            [
                14.74157244,
                0.0,
                0.0
            ],
            [
                0.0,
                14.74157805,
                0.0
            ],
            [
                0.0,
                0.0,
                13.06443603
            ]
        ],
        "epsilon_ionic_avg": 14.182528839999998,
        "epsilon_ionic_eig": [
            14.74157244,
            14.74157805,
            13.06443603
        ],
        "epsilon_electronic": [
            [
                3.98166272,
                0.0,
                -0.0
            ],
            [
                0.0,
                3.98166272,
                0.0
            ],
            [
                0.0,
                -0.0,
                4.05946891
            ]
        ],
        "epsilon_electronic_avg": 4.007598116666666,
        "epsilon_electronic_eig": [
            3.98166272,
            3.98166272,
            4.05946891
        ]
    },
    "phonon": {
        "lowest_freq": -0.08869094088964583,
        "frequency": [
            -0.08869094088964583,
            -0.08869094088964583,
            -0.025395738719056052,
            1.52910200109128,
            1.52910200109128,
            1.665882387130263,
            1.7000133419143548,
            1.7000133419143548,
            1.9301047366910338,
            1.9301047366910338,
            1.9881388429268028,
            2.0061296503457173,
            2.0764037132290007,
            2.0764037132290007,
            2.1071958604419425,
            2.1071958604419425,
            2.121666143824084,
            2.2137917445110875,
            2.531395020253281,
            2.531395020253281,
            2.6538796987824087,
            2.875453716557182,
            2.887553818504613,
            2.887553818504613,
            3.0503678110931185,
            3.332559476116103,
            3.336050926249695,
            3.3579256579191616,
            3.40383524362176,
            3.40383524362176,
            3.4039720943366434,
            3.4039720943366434,
            3.516827401687803,
            3.5535058151004897,
            3.5535058151004897,
            3.7588480866277916,
            3.947842742563738,
            3.947842742563738,
            3.968069846209062,
            3.9967713920115857,
            3.9967713920115857,
            4.060283825869217,
            4.110904191590809,
            4.110904191590809,
            4.123784589038887,
            4.212320153752278,
            4.212320153752278,
            4.214016468282234,
            4.214016468282234,
            4.233872573391316,
            4.6760339016260275,
            4.863783094120708,
            5.0296491442399756,
            5.163281087778123,
            5.163281087778123,
            5.240865921989553,
            5.272099213941261,
            5.290986611750563,
            5.290986611750563,
            5.523672033429798,
            5.980027091267669,
            6.859559704272598,
            6.859559704272598,
            6.940388391660097,
            6.940388391660097,
            6.971501624632011,
            7.05175682290861,
            7.404589594910916,
            7.427746493450104,
            8.229239141877615,
            8.407047356240835,
            8.644578847721542,
            8.66792878010964,
            8.66792878010964,
            8.78905386883527,
            9.244516163307733,
            9.244516163307733,
            9.349125915335566,
            9.349125915335566,
            10.102531596433721,
            10.102531596433721,
            10.1515270803249,
            10.217050675211846,
            10.29166328999827,
            10.333443693448974,
            10.501539913507447,
            10.501539913507447,
            10.805293580280217,
            10.805293580280217,
            10.90172571144894,
            11.01832479850038,
            11.25913151616838,
            20.414353407835595,
            20.414353407835595,
            20.520996867294155,
            20.520996867294155,
            20.846438036242116,
            20.846438036242116,
            21.06710099990726,
            21.06710099990726,
            21.206164224240784,
            21.236760965735435,
            21.326051499877643,
            22.02361575991065,
            22.11525801484864,
            22.23532270516324,
            22.346805016184504,
            22.752488064337733
        ]
    },
    "born_effective_charge": {
        "avg_abs_trace": 2.486482037037037,
        "tensors": [
            [
                [
                    2.5456,
                    0.01909,
                    -6e-05
                ],
                [
                    -0.01908,
                    2.5456,
                    -6e-05
                ],
                [
                    0.0,
                    -0.0,
                    2.89625
                ]
            ],
            [
                [
                    2.5456,
                    -0.01909,
                    -6e-05
                ],
                [
                    0.01908,
                    2.5456,
                    -6e-05
                ],
                [
                    0.0,
                    -0.0,
                    2.89625
                ]
            ],
            [
                [
                    2.80533,
                    0.07905,
                    0.00707
                ],
                [
                    0.07902,
                    2.80534,
                    0.00705
                ],
                [
                    -0.0218,
                    -0.02188,
                    2.62063
                ]
            ],
            [
                [
                    2.80533,
                    -0.07905,
                    0.00707
                ],
                [
                    -0.07904,
                    2.80532,
                    -0.00707
                ],
                [
                    -0.0218,
                    0.02188,
                    2.62063
                ]
            ],
            [
                [
                    2.80533,
                    -0.07902,
                    0.00705
                ],
                [
                    -0.07902,
                    2.80534,
                    -0.00705
                ],
                [
                    -0.02188,
                    0.0218,
                    2.62063
                ]
            ],
            [
                [
                    2.80533,
                    0.07902,
                    0.00705
                ],
                [
                    0.07904,
                    2.80532,
                    0.00707
                ],
                [
                    -0.02188,
                    -0.0218,
                    2.62063
                ]
            ],
            [
                [
                    2.5456,
                    0.01909,
                    6e-05
                ],
                [
                    -0.01908,
                    2.5456,
                    6e-05
                ],
                [
                    0.0,
                    -0.0,
                    2.89646
                ]
            ],
            [
                [
                    2.5456,
                    -0.01909,
                    6e-05
                ],
                [
                    0.01908,
                    2.5456,
                    6e-05
                ],
                [
                    0.0,
                    -0.0,
                    2.89646
                ]
            ],
            [
                [
                    2.80533,
                    0.07905,
                    -0.00707
                ],
                [
                    0.07902,
                    2.80534,
                    -0.00705
                ],
                [
                    0.02188,
                    0.0218,
                    2.62063
                ]
            ],
            [
                [
                    2.80533,
                    -0.07905,
                    -0.00707
                ],
                [
                    -0.07904,
                    2.80532,
                    0.00707
                ],
                [
                    0.02188,
                    -0.0218,
                    2.62063
                ]
            ],
            [
                [
                    2.80533,
                    -0.07902,
                    -0.00705
                ],
                [
                    -0.07902,
                    2.80534,
                    0.00705
                ],
                [
                    0.0218,
                    -0.02188,
                    2.62063
                ]
            ],
            [
                [
                    2.80533,
                    0.07902,
                    -0.00705
                ],
                [
                    0.07904,
                    2.80532,
                    -0.00707
                ],
                [
                    0.0218,
                    0.02188,
                    2.62063
                ]
            ],
            [
                [
                    2.84241,
                    -0.0337,
                    5e-05
                ],
                [
                    0.0337,
                    2.84241,
                    -4e-05
                ],
                [
                    0.0,
                    -0.0,
                    3.43256
                ]
            ],
            [
                [
                    2.84241,
                    0.0337,
                    5e-05
                ],
                [
                    -0.0337,
                    2.84241,
                    -4e-05
                ],
                [
                    0.0,
                    -0.0,
                    3.43256
                ]
            ],
            [
                [
                    2.84241,
                    -0.0337,
                    -5e-05
                ],
                [
                    0.0337,
                    2.84241,
                    4e-05
                ],
                [
                    0.0,
                    -0.0,
                    3.43256
                ]
            ],
            [
                [
                    2.84241,
                    0.0337,
                    -5e-05
                ],
                [
                    -0.0337,
                    2.84241,
                    4e-05
                ],
                [
                    0.0,
                    -0.0,
                    3.43256
                ]
            ],
            [
                [
                    -2.6749,
                    0.21964,
                    8e-05
                ],
                [
                    -0.21964,
                    -2.67491,
                    8e-05
                ],
                [
                    0.0,
                    -0.0,
                    -2.53436
                ]
            ],
            [
                [
                    -2.6749,
                    -0.21964,
                    8e-05
                ],
                [
                    0.21964,
                    -2.67491,
                    8e-05
                ],
                [
                    0.0,
                    -0.0,
                    -2.53436
                ]
            ],
            [
                [
                    -1.97809,
                    0.22813,
                    0.29082
                ],
                [
                    0.2119,
                    -2.18369,
                    -0.37473
                ],
                [
                    0.33321,
                    -0.35647,
                    -2.25896
                ]
            ],
            [
                [
                    -1.97809,
                    -0.22813,
                    0.29082
                ],
                [
                    -0.21204,
                    -2.18378,
                    0.37492
                ],
                [
                    0.33321,
                    0.35647,
                    -2.25896
                ]
            ],
            [
                [
                    -2.18378,
                    -0.21203,
                    -0.37492
                ],
                [
                    -0.22814,
                    -1.97809,
                    -0.29082
                ],
                [
                    -0.35654,
                    -0.33319,
                    -2.25894
                ]
            ],
            [
                [
                    -2.18378,
                    0.21203,
                    -0.37492
                ],
                [
                    0.22818,
                    -1.9782,
                    0.29082
                ],
                [
                    -0.35654,
                    0.33319,
                    -2.25894
                ]
            ],
            [
                [
                    -2.18369,
                    0.2119,
                    -0.37473
                ],
                [
                    0.22814,
                    -1.97809,
                    0.29082
                ],
                [
                    -0.35647,
                    0.33321,
                    -2.25896
                ]
            ],
            [
                [
                    -2.18369,
                    -0.2119,
                    -0.37473
                ],
                [
                    -0.22818,
                    -1.9782,
                    -0.29082
                ],
                [
                    -0.35647,
                    -0.33321,
                    -2.25896
                ]
            ],
            [
                [
                    -1.9782,
                    -0.22817,
                    0.29083
                ],
                [
                    -0.2119,
                    -2.18369,
                    0.37473
                ],
                [
                    0.33319,
                    0.35654,
                    -2.25894
                ]
            ],
            [
                [
                    -1.9782,
                    0.22817,
                    0.29083
                ],
                [
                    0.21204,
                    -2.18378,
                    -0.37492
                ],
                [
                    0.33319,
                    -0.35654,
                    -2.25894
                ]
            ],
            [
                [
                    -2.6749,
                    -0.21964,
                    -8e-05
                ],
                [
                    0.21964,
                    -2.67491,
                    -8e-05
                ],
                [
                    0.0,
                    -0.0,
                    -2.53438
                ]
            ],
            [
                [
                    -2.6749,
                    0.21964,
                    -8e-05
                ],
                [
                    -0.21964,
                    -2.67491,
                    -8e-05
                ],
                [
                    0.0,
                    -0.0,
                    -2.53438
                ]
            ],
            [
                [
                    -1.97809,
                    0.22813,
                    -0.29082
                ],
                [
                    0.2119,
                    -2.18369,
                    0.37473
                ],
                [
                    -0.33319,
                    0.35654,
                    -2.25894
                ]
            ],
            [
                [
                    -1.97809,
                    -0.22813,
                    -0.29082
                ],
                [
                    -0.21204,
                    -2.18378,
                    -0.37492
                ],
                [
                    -0.33319,
                    -0.35654,
                    -2.25894
                ]
            ],
            [
                [
                    -2.18378,
                    -0.21203,
                    0.37492
                ],
                [
                    -0.22814,
                    -1.97809,
                    0.29082
                ],
                [
                    0.35647,
                    0.33321,
                    -2.25896
                ]
            ],
            [
                [
                    -2.18378,
                    0.21203,
                    0.37492
                ],
                [
                    0.22818,
                    -1.9782,
                    -0.29082
                ],
                [
                    0.35647,
                    -0.33321,
                    -2.25896
                ]
            ],
            [
                [
                    -2.18369,
                    -0.2119,
                    0.37473
                ],
                [
                    -0.22818,
                    -1.9782,
                    0.29082
                ],
                [
                    0.35654,
                    0.33319,
                    -2.25894
                ]
            ],
            [
                [
                    -2.18369,
                    0.2119,
                    0.37473
                ],
                [
                    0.22814,
                    -1.97809,
                    -0.29082
                ],
                [
                    0.35654,
                    -0.33319,
                    -2.25894
                ]
            ],
            [
                [
                    -1.9782,
                    0.22817,
                    -0.29083
                ],
                [
                    0.21204,
                    -2.18378,
                    0.37492
                ],
                [
                    -0.33321,
                    0.35647,
                    -2.25896
                ]
            ],
            [
                [
                    -1.9782,
                    -0.22817,
                    -0.29083
                ],
                [
                    -0.2119,
                    -2.18369,
                    -0.37473
                ],
                [
                    -0.33321,
                    -0.35647,
                    -2.25896
                ]
            ]
        ]
    },
    "band_gap": 2.7573000000000003,
    "is_direct": false,
    "formula": "Ba3GeO5"
}