{
    "mp_id": "mp-755586",
    "nelements": 3,
    "nsites": 8,
    "elements": [
        "La",
        "Na",
        "O"
    ],
    "structure": {
        "@module": "pymatgen.core.structure",
        "@class": "Structure",
        "charge": null,
        "lattice": {
            "matrix": [
                [
                    -2.37715359,
                    2.37715359,
                    5.68111839
                ],
                [
                    2.37715359,
                    -2.37715359,
                    5.68111839
                ],
                [
                    2.37715359,
                    2.37715359,
                    -5.68111839
                ]
            ],
            "a": 6.601274463472638,
            "b": 6.601274463472638,
            "c": 6.601274463472638,
            "alpha": 137.78668016659418,
            "beta": 137.78668016659418,
            "gamma": 61.22986527461145,
            "volume": 128.41280026466146
        },
        "sites": [
            {
                "species": [
                    {
                        "element": "Na",
                        "occu": 1
                    }
                ],
                "abc": [
                    0.5,
                    0.5,
                    0.0
                ],
                "xyz": [
                    0.0,
                    0.0,
                    5.68111839
                ],
                "label": "Na",
                "properties": {}
            },
            {
                "species": [
                    {
                        "element": "Na",
                        "occu": 1
                    }
                ],
                "abc": [
                    0.25,
                    0.75,
                    0.5
                ],
                "xyz": [
                    2.37715359,
                    0.0,
                    2.840559195
                ],
                "label": "Na",
                "properties": {}
            },
            {
                "species": [
                    {
                        "element": "La",
                        "occu": 1
                    }
                ],
                "abc": [
                    0.0,
                    0.0,
                    0.0
                ],
                "xyz": [
                    0.0,
                    0.0,
                    0.0
                ],
                "label": "La",
                "properties": {}
            },
            {
                "species": [
                    {
                        "element": "La",
                        "occu": 1
                    }
                ],
                "abc": [
                    0.75,
                    0.25,
                    0.5
                ],
                "xyz": [
                    0.0,
                    2.37715359,
                    2.840559195
                ],
                "label": "La",
                "properties": {}
            },
            {
                "species": [
                    {
                        "element": "O",
                        "occu": 1
                    }
                ],
                "abc": [
                    0.2152086,
                    0.2152086,
                    0.0
                ],
                "xyz": [
                    0.0,
                    0.0,
                    2.445251070292308
                ],
                "label": "O",
                "properties": {}
            },
            {
                "species": [
                    {
                        "element": "O",
                        "occu": 1
                    }
                ],
                "abc": [
                    0.5347914,
                    0.0347914,
                    0.5
                ],
                "xyz": [
                    0.0,
                    2.37715359,
                    0.39530812470769217
                ],
                "label": "O",
                "properties": {}
            },
            {
                "species": [
                    {
                        "element": "O",
                        "occu": 1
                    }
                ],
                "abc": [
                    0.9652086,
                    0.4652086,
                    0.5
                ],
                "xyz": [
                    2.220446049250313e-16,
                    2.37715359,
                    5.285810265292308
                ],
                "label": "O",
                "properties": {}
            },
            {
                "species": [
                    {
                        "element": "O",
                        "occu": 1
                    }
                ],
                "abc": [
                    0.7847914,
                    0.7847914,
                    0.0
                ],
                "xyz": [
                    0.0,
                    0.0,
                    8.916985709707692
                ],
                "label": "O",
                "properties": {}
            }
        ]
    },
    "spacegroup": {
        "source": "spglib",
        "symbol": "I4_1/amd",
        "number": 141,
        "point_group": "4/mmm",
        "crystal_system": "tetragonal",
        "hall": "I 4bw 2bw -1bw"
    },
    "dielectric": {
        "epsilon_ionic": [
            [
                10.70792778,
                1e-08,
                0.0
            ],
            [
                1e-08,
                10.70864102,
                -1e-08
            ],
            [
                0.0,
                -1e-08,
                21.79458024
            ]
        ],
        "epsilon_ionic_avg": 14.403716346666664,
        "epsilon_ionic_eig": [
            10.70792777999986,
            10.70864102000014,
            21.79458024
        ],
        "epsilon_electronic": [
            [
                3.84333384,
                0.0,
                0.0
            ],
            [
                0.0,
                3.84333384,
                -0.0
            ],
            [
                0.0,
                0.0,
                3.98940114
            ]
        ],
        "epsilon_electronic_avg": 3.8920229400000004,
        "epsilon_electronic_eig": [
            3.84333384,
            3.84333384,
            3.98940114
        ]
    },
    "phonon": {
        "lowest_freq": -0.04654836436099159,
        "frequency": [
            -0.04654836436099159,
            -0.04654836436099159,
            -0.029791720939875737,
            2.636041707679835,
            2.6485123044655414,
            3.386269169712099,
            3.386269169712099,
            5.644590770523916,
            5.880719494629389,
            5.880719494629389,
            6.321367061754419,
            6.321367061754419,
            7.040288871270552,
            7.08991202977793,
            7.08991202977793,
            7.5112924296228,
            7.5112924296228,
            9.436687665199806,
            9.436687665199806,
            9.52100525856857,
            10.205783741394479,
            10.299165087023386,
            10.299165087023386,
            11.29375435700042
        ]
    },
    "born_effective_charge": {
        "avg_abs_trace": 2.4672341666666666,
        "tensors": [
            [
                [
                    1.0483,
                    0.0,
                    0.0
                ],
                [
                    0.0,
                    1.04811,
                    0.0
                ],
                [
                    0.0,
                    0.0,
                    1.06326
                ]
            ],
            [
                [
                    1.0483,
                    0.0,
                    -0.0
                ],
                [
                    0.0,
                    1.04811,
                    -0.0
                ],
                [
                    0.0,
                    0.0,
                    1.06326
                ]
            ],
            [
                [
                    3.8881,
                    0.0,
                    -8e-05
                ],
                [
                    0.0,
                    3.88851,
                    -0.00023
                ],
                [
                    0.0,
                    0.0,
                    3.86713
                ]
            ],
            [
                [
                    3.8881,
                    0.0,
                    8e-05
                ],
                [
                    0.0,
                    3.88851,
                    0.00023
                ],
                [
                    0.0,
                    0.0,
                    3.86713
                ]
            ],
            [
                [
                    -1.25237,
                    -0.0,
                    -3e-05
                ],
                [
                    -0.0,
                    -3.68404,
                    -0.00027
                ],
                [
                    -0.0,
                    -0.0,
                    -2.46515
                ]
            ],
            [
                [
                    -1.25237,
                    -0.0,
                    3e-05
                ],
                [
                    -0.0,
                    -3.68404,
                    0.00027
                ],
                [
                    0.0,
                    -0.0,
                    -2.46524
                ]
            ],
            [
                [
                    -3.68402,
                    0.0,
                    7e-05
                ],
                [
                    0.0,
                    -1.25258,
                    -1e-05
                ],
                [
                    -0.0,
                    -0.0,
                    -2.46515
                ]
            ],
            [
                [
                    -3.68402,
                    -0.0,
                    -7e-05
                ],
                [
                    0.0,
                    -1.25258,
                    1e-05
                ],
                [
                    -0.0,
                    0.0,
                    -2.46524
                ]
            ]
        ]
    },
    "band_gap": 3.1148,
    "is_direct": true,
    "formula": "NaLaO2"
}