{
    "mp_id": "mp-755401",
    "nelements": 3,
    "nsites": 24,
    "elements": [
        "Cu",
        "Na",
        "O"
    ],
    "structure": {
        "@module": "pymatgen.core.structure",
        "@class": "Structure",
        "charge": null,
        "lattice": {
            "matrix": [
                [
                    9.31857177,
                    0.0,
                    0.0
                ],
                [
                    0.0,
                    9.31857177,
                    0.0
                ],
                [
                    0.0,
                    0.0,
                    4.50750906
                ]
            ],
            "a": 9.31857177,
            "b": 9.31857177,
            "c": 4.50750906,
            "alpha": 90.0,
            "beta": 90.0,
            "gamma": 90.0,
            "volume": 391.41306432779436
        },
        "sites": [
            {
                "species": [
                    {
                        "element": "Na",
                        "occu": 1
                    }
                ],
                "abc": [
                    0.97826612,
                    0.65293597,
                    0.5
                ],
                "xyz": [
                    9.116043049379433,
                    6.084430697659568,
                    2.25375453
                ],
                "label": "Na",
                "properties": {}
            },
            {
                "species": [
                    {
                        "element": "Na",
                        "occu": 1
                    }
                ],
                "abc": [
                    0.15293597,
                    0.52173388,
                    0.0
                ],
                "xyz": [
                    1.425144812659567,
                    4.861814605620568,
                    0.0
                ],
                "label": "Na",
                "properties": {}
            },
            {
                "species": [
                    {
                        "element": "Na",
                        "occu": 1
                    }
                ],
                "abc": [
                    0.14605601,
                    0.85394399,
                    0.0
                ],
                "xyz": [
                    1.3610334116248375,
                    7.957538358375162,
                    0.0
                ],
                "label": "Na",
                "properties": {}
            },
            {
                "species": [
                    {
                        "element": "Na",
                        "occu": 1
                    }
                ],
                "abc": [
                    0.35394399,
                    0.35394399,
                    0.5
                ],
                "xyz": [
                    3.2982524733751624,
                    3.2982524733751624,
                    2.25375453
                ],
                "label": "Na",
                "properties": {}
            },
            {
                "species": [
                    {
                        "element": "Na",
                        "occu": 1
                    }
                ],
                "abc": [
                    0.34706403,
                    0.02173388,
                    0.5
                ],
                "xyz": [
                    3.2341410723404334,
                    0.20252872062056762,
                    2.25375453
                ],
                "label": "Na",
                "properties": {}
            },
            {
                "species": [
                    {
                        "element": "Na",
                        "occu": 1
                    }
                ],
                "abc": [
                    0.52173388,
                    0.15293597,
                    0.0
                ],
                "xyz": [
                    4.861814605620568,
                    1.425144812659567,
                    0.0
                ],
                "label": "Na",
                "properties": {}
            },
            {
                "species": [
                    {
                        "element": "Na",
                        "occu": 1
                    }
                ],
                "abc": [
                    0.47826612,
                    0.84706403,
                    0.0
                ],
                "xyz": [
                    4.456757164379432,
                    7.8934269573404325,
                    0.0
                ],
                "label": "Na",
                "properties": {}
            },
            {
                "species": [
                    {
                        "element": "Na",
                        "occu": 1
                    }
                ],
                "abc": [
                    0.65293597,
                    0.97826612,
                    0.5
                ],
                "xyz": [
                    6.084430697659568,
                    9.116043049379433,
                    2.25375453
                ],
                "label": "Na",
                "properties": {}
            },
            {
                "species": [
                    {
                        "element": "Na",
                        "occu": 1
                    }
                ],
                "abc": [
                    0.64605601,
                    0.64605601,
                    0.5
                ],
                "xyz": [
                    6.020319296624838,
                    6.020319296624838,
                    2.25375453
                ],
                "label": "Na",
                "properties": {}
            },
            {
                "species": [
                    {
                        "element": "Na",
                        "occu": 1
                    }
                ],
                "abc": [
                    0.85394399,
                    0.14605601,
                    0.0
                ],
                "xyz": [
                    7.957538358375162,
                    1.3610334116248375,
                    0.0
                ],
                "label": "Na",
                "properties": {}
            },
            {
                "species": [
                    {
                        "element": "Na",
                        "occu": 1
                    }
                ],
                "abc": [
                    0.84706403,
                    0.47826612,
                    0.0
                ],
                "xyz": [
                    7.8934269573404325,
                    4.456757164379432,
                    0.0
                ],
                "label": "Na",
                "properties": {}
            },
            {
                "species": [
                    {
                        "element": "Na",
                        "occu": 1
                    }
                ],
                "abc": [
                    0.02173388,
                    0.34706403,
                    0.5
                ],
                "xyz": [
                    0.20252872062056762,
                    3.2341410723404334,
                    2.25375453
                ],
                "label": "Na",
                "properties": {}
            },
            {
                "species": [
                    {
                        "element": "Cu",
                        "occu": 1
                    }
                ],
                "abc": [
                    0.1710759,
                    0.1710759,
                    0.0
                ],
                "xyz": [
                    1.594183052267343,
                    1.594183052267343,
                    0.0
                ],
                "label": "Cu",
                "properties": {}
            },
            {
                "species": [
                    {
                        "element": "Cu",
                        "occu": 1
                    }
                ],
                "abc": [
                    0.3289241,
                    0.6710759,
                    0.5
                ],
                "xyz": [
                    3.065102832732657,
                    6.253468937267343,
                    2.25375453
                ],
                "label": "Cu",
                "properties": {}
            },
            {
                "species": [
                    {
                        "element": "Cu",
                        "occu": 1
                    }
                ],
                "abc": [
                    0.6710759,
                    0.3289241,
                    0.5
                ],
                "xyz": [
                    6.253468937267343,
                    3.065102832732657,
                    2.25375453
                ],
                "label": "Cu",
                "properties": {}
            },
            {
                "species": [
                    {
                        "element": "Cu",
                        "occu": 1
                    }
                ],
                "abc": [
                    0.8289241,
                    0.8289241,
                    0.0
                ],
                "xyz": [
                    7.724388717732658,
                    7.724388717732658,
                    0.0
                ],
                "label": "Cu",
                "properties": {}
            },
            {
                "species": [
                    {
                        "element": "O",
                        "occu": 1
                    }
                ],
                "abc": [
                    0.03311996,
                    0.30276919,
                    0.0
                ],
                "xyz": [
                    0.3086307242795292,
                    2.8213764267597665,
                    0.0
                ],
                "label": "O",
                "properties": {}
            },
            {
                "species": [
                    {
                        "element": "O",
                        "occu": 1
                    }
                ],
                "abc": [
                    0.19723081,
                    0.53311996,
                    0.5
                ],
                "xyz": [
                    1.8379094582402338,
                    4.967916609279529,
                    2.25375453
                ],
                "label": "O",
                "properties": {}
            },
            {
                "species": [
                    {
                        "element": "O",
                        "occu": 1
                    }
                ],
                "abc": [
                    0.30276919,
                    0.03311996,
                    0.0
                ],
                "xyz": [
                    2.8213764267597665,
                    0.3086307242795292,
                    0.0
                ],
                "label": "O",
                "properties": {}
            },
            {
                "species": [
                    {
                        "element": "O",
                        "occu": 1
                    }
                ],
                "abc": [
                    0.46688004,
                    0.80276919,
                    0.5
                ],
                "xyz": [
                    4.35065516072047,
                    7.480662311759767,
                    2.25375453
                ],
                "label": "O",
                "properties": {}
            },
            {
                "species": [
                    {
                        "element": "O",
                        "occu": 1
                    }
                ],
                "abc": [
                    0.53311996,
                    0.19723081,
                    0.5
                ],
                "xyz": [
                    4.967916609279529,
                    1.8379094582402338,
                    2.25375453
                ],
                "label": "O",
                "properties": {}
            },
            {
                "species": [
                    {
                        "element": "O",
                        "occu": 1
                    }
                ],
                "abc": [
                    0.69723081,
                    0.96688004,
                    0.0
                ],
                "xyz": [
                    6.497195343240233,
                    9.009941045720472,
                    0.0
                ],
                "label": "O",
                "properties": {}
            },
            {
                "species": [
                    {
                        "element": "O",
                        "occu": 1
                    }
                ],
                "abc": [
                    0.80276919,
                    0.46688004,
                    0.5
                ],
                "xyz": [
                    7.480662311759767,
                    4.35065516072047,
                    2.25375453
                ],
                "label": "O",
                "properties": {}
            },
            {
                "species": [
                    {
                        "element": "O",
                        "occu": 1
                    }
                ],
                "abc": [
                    0.96688004,
                    0.69723081,
                    0.0
                ],
                "xyz": [
                    9.009941045720472,
                    6.497195343240233,
                    0.0
                ],
                "label": "O",
                "properties": {}
            }
        ]
    },
    "spacegroup": {
        "source": "spglib",
        "symbol": "P4_2/mnm",
        "number": 136,
        "point_group": "4/mmm",
        "crystal_system": "tetragonal",
        "hall": "-P 4n 2n"
    },
    "dielectric": {
        "epsilon_ionic": [
            [
                3.47865192,
                -1e-08,
                1e-08
            ],
            [
                -1e-08,
                3.47866698,
                1e-08
            ],
            [
                1e-08,
                1e-08,
                3.27325678
            ]
        ],
        "epsilon_ionic_avg": 3.4101918933333337,
        "epsilon_ionic_eig": [
            3.273256779999999,
            3.478651919993361,
            3.4786669800066408
        ],
        "epsilon_electronic": [
            [
                3.20212526,
                0.0,
                0.0
            ],
            [
                0.0,
                3.20212526,
                0.0
            ],
            [
                0.0,
                0.0,
                3.14460687
            ]
        ],
        "epsilon_electronic_avg": 3.1829524633333333,
        "epsilon_electronic_eig": [
            3.20212526,
            3.20212526,
            3.14460687
        ]
    },
    "phonon": {
        "lowest_freq": -0.17929288955028072,
        "frequency": [
            -0.17929288955028072,
            -0.10923655237686657,
            -0.10923655237686657,
            1.906683048687921,
            2.165222231831139,
            2.165222231831139,
            2.5657209259479887,
            2.6092352431656547,
            2.744959832738842,
            2.744959832738842,
            2.7974187527246297,
            2.879569309122288,
            2.879569309122288,
            3.320218146378448,
            3.3235104837841107,
            3.4549299961547963,
            3.64520411075139,
            3.9709622126509165,
            3.9709622126509165,
            4.225794319638209,
            4.299860828865216,
            4.342249955458552,
            4.342249955458552,
            4.589425061917568,
            4.603891854628541,
            4.932577450199278,
            4.932577450199278,
            5.003500547284561,
            5.04065523920789,
            5.04065523920789,
            5.187075183592379,
            5.614448757856074,
            5.614448757856074,
            5.727283732552323,
            5.915606153033834,
            5.915606153033834,
            5.950738670517446,
            5.950738670517446,
            5.977123207800206,
            6.563365970791927,
            6.932434724608399,
            6.95597981345538,
            7.006044328854804,
            7.342517699892049,
            7.461744272512185,
            7.681419477596254,
            7.871306777840489,
            7.871306777840489,
            9.628652448447129,
            9.895902331675877,
            9.895902331675877,
            10.092257449756698,
            10.092257449756698,
            10.188648256515162,
            10.381645974691077,
            10.421900413981128,
            10.577334066073066,
            10.577334066073066,
            10.821998957065434,
            10.897879972186578,
            11.36043705433007,
            11.492503962546701,
            11.934578675137423,
            11.934578675137423,
            17.94317097975371,
            17.94317097975371,
            18.285093028414284,
            18.367183833231444,
            19.032848960657077,
            19.311955145406742,
            19.311955145406742,
            20.409811633141167
        ]
    },
    "born_effective_charge": {
        "avg_abs_trace": 0.9876358333333334,
        "tensors": [
            [
                [
                    1.02691,
                    -0.01772,
                    0.0
                ],
                [
                    0.03283,
                    0.88621,
                    0.0
                ],
                [
                    3e-05,
                    -9e-05,
                    0.9889
                ]
            ],
            [
                [
                    0.88621,
                    -0.03283,
                    0.0
                ],
                [
                    0.01777,
                    1.02692,
                    0.0
                ],
                [
                    -9e-05,
                    -3e-05,
                    0.9889
                ]
            ],
            [
                [
                    1.08007,
                    -0.0095,
                    0.0
                ],
                [
                    -0.00942,
                    1.08015,
                    0.0
                ],
                [
                    1e-05,
                    -1e-05,
                    0.92441
                ]
            ],
            [
                [
                    1.08015,
                    0.00942,
                    0.0
                ],
                [
                    0.00942,
                    1.08015,
                    0.0
                ],
                [
                    -1e-05,
                    -1e-05,
                    0.92441
                ]
            ],
            [
                [
                    0.88625,
                    0.03282,
                    0.0
                ],
                [
                    -0.01777,
                    1.02692,
                    0.0
                ],
                [
                    9e-05,
                    -3e-05,
                    0.9889
                ]
            ],
            [
                [
                    1.02692,
                    0.01777,
                    0.0
                ],
                [
                    -0.03283,
                    0.88621,
                    0.0
                ],
                [
                    -3e-05,
                    -9e-05,
                    0.9889
                ]
            ],
            [
                [
                    1.02691,
                    0.01772,
                    0.0
                ],
                [
                    -0.03282,
                    0.88626,
                    0.0
                ],
                [
                    3e-05,
                    9e-05,
                    0.9889
                ]
            ],
            [
                [
                    0.88621,
                    0.03283,
                    0.0
                ],
                [
                    -0.01773,
                    1.02691,
                    0.0
                ],
                [
                    -9e-05,
                    3e-05,
                    0.9889
                ]
            ],
            [
                [
                    1.08007,
                    0.0095,
                    0.0
                ],
                [
                    0.0095,
                    1.08007,
                    0.0
                ],
                [
                    1e-05,
                    1e-05,
                    0.92441
                ]
            ],
            [
                [
                    1.08015,
                    -0.00942,
                    0.0
                ],
                [
                    -0.0095,
                    1.08007,
                    0.0
                ],
                [
                    -1e-05,
                    1e-05,
                    0.92441
                ]
            ],
            [
                [
                    0.88625,
                    -0.03282,
                    0.0
                ],
                [
                    0.01773,
                    1.02691,
                    0.0
                ],
                [
                    9e-05,
                    3e-05,
                    0.9889
                ]
            ],
            [
                [
                    1.02692,
                    -0.01777,
                    0.0
                ],
                [
                    0.03282,
                    0.88626,
                    0.0
                ],
                [
                    -3e-05,
                    9e-05,
                    0.9889
                ]
            ],
            [
                [
                    0.35289,
                    -1.21081,
                    0.0
                ],
                [
                    -1.21081,
                    0.35289,
                    0.0
                ],
                [
                    -2e-05,
                    -2e-05,
                    -0.86573
                ]
            ],
            [
                [
                    0.35288,
                    1.21065,
                    0.0
                ],
                [
                    1.21081,
                    0.35289,
                    0.0
                ],
                [
                    2e-05,
                    -2e-05,
                    -0.86573
                ]
            ],
            [
                [
                    0.35289,
                    1.21081,
                    0.0
                ],
                [
                    1.21065,
                    0.35287,
                    0.0
                ],
                [
                    -2e-05,
                    2e-05,
                    -0.86573
                ]
            ],
            [
                [
                    0.35288,
                    -1.21065,
                    0.0
                ],
                [
                    -1.21065,
                    0.35287,
                    0.0
                ],
                [
                    2e-05,
                    2e-05,
                    -0.86573
                ]
            ],
            [
                [
                    -1.75175,
                    0.6633,
                    0.0
                ],
                [
                    0.63647,
                    -1.59451,
                    0.0
                ],
                [
                    -0.00027,
                    5e-05,
                    -1.01824
                ]
            ],
            [
                [
                    -1.59437,
                    -0.63646,
                    0.0
                ],
                [
                    -0.66329,
                    -1.75176,
                    0.0
                ],
                [
                    -5e-05,
                    -0.00027,
                    -1.01824
                ]
            ],
            [
                [
                    -1.5945,
                    0.63646,
                    0.0
                ],
                [
                    0.66329,
                    -1.75176,
                    0.0
                ],
                [
                    5e-05,
                    -0.00027,
                    -1.01824
                ]
            ],
            [
                [
                    -1.75165,
                    -0.66311,
                    0.0
                ],
                [
                    -0.63647,
                    -1.59451,
                    0.0
                ],
                [
                    0.00027,
                    5e-05,
                    -1.01824
                ]
            ],
            [
                [
                    -1.75175,
                    -0.6633,
                    0.0
                ],
                [
                    -0.63645,
                    -1.59437,
                    0.0
                ],
                [
                    -0.00027,
                    -5e-05,
                    -1.01824
                ]
            ],
            [
                [
                    -1.59437,
                    0.63646,
                    0.0
                ],
                [
                    0.66309,
                    -1.75164,
                    0.0
                ],
                [
                    -5e-05,
                    0.00027,
                    -1.01824
                ]
            ],
            [
                [
                    -1.5945,
                    -0.63646,
                    0.0
                ],
                [
                    -0.66309,
                    -1.75164,
                    0.0
                ],
                [
                    5e-05,
                    0.00027,
                    -1.01824
                ]
            ],
            [
                [
                    -1.75165,
                    0.66311,
                    0.0
                ],
                [
                    0.63645,
                    -1.59437,
                    0.0
                ],
                [
                    0.00027,
                    -5e-05,
                    -1.01824
                ]
            ]
        ]
    },
    "band_gap": 1.6979000000000002,
    "is_direct": true,
    "formula": "Na3CuO2"
}