{
    "mp_id": "mp-756919",
    "nelements": 3,
    "nsites": 26,
    "elements": [
        "As",
        "Mg",
        "O"
    ],
    "structure": {
        "@module": "pymatgen.core.structure",
        "@class": "Structure",
        "charge": null,
        "lattice": {
            "matrix": [
                [
                    5.3366985,
                    0.0,
                    -0.00037596
                ],
                [
                    0.0,
                    8.36495055,
                    0.0
                ],
                [
                    -4.54972867,
                    0.0,
                    7.80146684
                ]
            ],
            "a": 5.336698513242824,
            "b": 8.36495055,
            "c": 9.031218955724613,
            "alpha": 90.0,
            "beta": 120.25429767674926,
            "gamma": 90.0,
            "volume": 348.2526817555991
        },
        "sites": [
            {
                "species": [
                    {
                        "element": "Mg",
                        "occu": 1
                    }
                ],
                "abc": [
                    0.5,
                    0.0,
                    0.5
                ],
                "xyz": [
                    0.3934849149999997,
                    0.0,
                    3.9005454399999997
                ],
                "label": "Mg",
                "properties": {}
            },
            {
                "species": [
                    {
                        "element": "Mg",
                        "occu": 1
                    }
                ],
                "abc": [
                    0.50258553,
                    0.64316654,
                    0.60355956
                ],
                "xyz": [
                    -0.06388479011188108,
                    5.380056302514596,
                    4.708460941249132
                ],
                "label": "Mg",
                "properties": {}
            },
            {
                "species": [
                    {
                        "element": "Mg",
                        "occu": 1
                    }
                ],
                "abc": [
                    0.49741447,
                    0.14316654,
                    0.89644044
                ],
                "xyz": [
                    -1.4240097148881206,
                    1.197581027514597,
                    6.993363358750869
                ],
                "label": "Mg",
                "properties": {}
            },
            {
                "species": [
                    {
                        "element": "Mg",
                        "occu": 1
                    }
                ],
                "abc": [
                    0.5,
                    0.5,
                    0.0
                ],
                "xyz": [
                    2.66834925,
                    4.182475275,
                    -0.00018798
                ],
                "label": "Mg",
                "properties": {}
            },
            {
                "species": [
                    {
                        "element": "Mg",
                        "occu": 1
                    }
                ],
                "abc": [
                    0.50258553,
                    0.85683346,
                    0.10355956
                ],
                "xyz": [
                    2.210979544888119,
                    7.167369522485403,
                    0.8077275212491316
                ],
                "label": "Mg",
                "properties": {}
            },
            {
                "species": [
                    {
                        "element": "Mg",
                        "occu": 1
                    }
                ],
                "abc": [
                    0.49741447,
                    0.35683346,
                    0.39644044
                ],
                "xyz": [
                    0.8508546201118798,
                    2.984894247485403,
                    3.0926299387508682
                ],
                "label": "Mg",
                "properties": {}
            },
            {
                "species": [
                    {
                        "element": "As",
                        "occu": 1
                    }
                ],
                "abc": [
                    0.15075752,
                    0.69593467,
                    0.1954035
                ],
                "xyz": [
                    -0.08448547532062511,
                    5.821459100580568,
                    1.5243772468727208
                ],
                "label": "As",
                "properties": {}
            },
            {
                "species": [
                    {
                        "element": "As",
                        "occu": 1
                    }
                ],
                "abc": [
                    0.84924248,
                    0.19593467,
                    0.3045965
                ],
                "xyz": [
                    3.146319640320625,
                    1.6389838255805684,
                    2.375980213127279
                ],
                "label": "As",
                "properties": {}
            },
            {
                "species": [
                    {
                        "element": "As",
                        "occu": 1
                    }
                ],
                "abc": [
                    0.15075752,
                    0.80406533,
                    0.6954035
                ],
                "xyz": [
                    -2.359349810320625,
                    6.725966724419432,
                    5.425110666872721
                ],
                "label": "As",
                "properties": {}
            },
            {
                "species": [
                    {
                        "element": "As",
                        "occu": 1
                    }
                ],
                "abc": [
                    0.84924248,
                    0.30406533,
                    0.8045965
                ],
                "xyz": [
                    0.8714553053206249,
                    2.5434914494194314,
                    6.276713633127279
                ],
                "label": "As",
                "properties": {}
            },
            {
                "species": [
                    {
                        "element": "O",
                        "occu": 1
                    }
                ],
                "abc": [
                    0.67038189,
                    0.12345226,
                    0.7401244
                ],
                "xyz": [
                    0.21026082474361685,
                    1.032672050185743,
                    5.773803927299531
                ],
                "label": "O",
                "properties": {}
            },
            {
                "species": [
                    {
                        "element": "O",
                        "occu": 1
                    }
                ],
                "abc": [
                    0.29761842,
                    0.56352215,
                    0.36141787
                ],
                "xyz": [
                    -0.056053469402963074,
                    4.713834918579683,
                    2.8194776355672473
                ],
                "label": "O",
                "properties": {}
            },
            {
                "species": [
                    {
                        "element": "O",
                        "occu": 1
                    }
                ],
                "abc": [
                    0.76380492,
                    0.35170413,
                    0.95834028
                ],
                "xyz": [
                    -0.28399167667520775,
                    2.9419876556807716,
                    7.476172755758593
                ],
                "label": "O",
                "properties": {}
            },
            {
                "species": [
                    {
                        "element": "O",
                        "occu": 1
                    }
                ],
                "abc": [
                    0.2133327,
                    0.19813521,
                    0.3856136
                ],
                "xyz": [
                    -0.6159449513709623,
                    1.6573912338638654,
                    3.008271508891132
                ],
                "label": "O",
                "properties": {}
            },
            {
                "species": [
                    {
                        "element": "O",
                        "occu": 1
                    }
                ],
                "abc": [
                    0.23619508,
                    0.85170413,
                    0.54165972
                ],
                "xyz": [
                    -1.2039028283247923,
                    7.124462930680771,
                    4.2256515442414075
                ],
                "label": "O",
                "properties": {}
            },
            {
                "species": [
                    {
                        "element": "O",
                        "occu": 1
                    }
                ],
                "abc": [
                    0.32961811,
                    0.62345226,
                    0.7598756
                ],
                "xyz": [
                    -1.6981553297436172,
                    5.215147325185742,
                    5.928020372700468
                ],
                "label": "O",
                "properties": {}
            },
            {
                "species": [
                    {
                        "element": "O",
                        "occu": 1
                    }
                ],
                "abc": [
                    0.7866673,
                    0.69813521,
                    0.1143864
                ],
                "xyz": [
                    3.677779116370961,
                    5.8398665088638655,
                    0.892085951108868
                ],
                "label": "O",
                "properties": {}
            },
            {
                "species": [
                    {
                        "element": "O",
                        "occu": 1
                    }
                ],
                "abc": [
                    0.70238158,
                    0.06352215,
                    0.13858213
                ],
                "xyz": [
                    3.1178876344029622,
                    0.5313596435796825,
                    1.0808798244327524
                ],
                "label": "O",
                "properties": {}
            },
            {
                "species": [
                    {
                        "element": "O",
                        "occu": 1
                    }
                ],
                "abc": [
                    0.29761842,
                    0.93647785,
                    0.86141787
                ],
                "xyz": [
                    -2.3309178044029633,
                    7.833590906420317,
                    6.720211055567248
                ],
                "label": "O",
                "properties": {}
            },
            {
                "species": [
                    {
                        "element": "O",
                        "occu": 1
                    }
                ],
                "abc": [
                    0.2133327,
                    0.30186479,
                    0.8856136
                ],
                "xyz": [
                    -2.8908092863709625,
                    2.525084041136134,
                    6.9090049288911315
                ],
                "label": "O",
                "properties": {}
            },
            {
                "species": [
                    {
                        "element": "O",
                        "occu": 1
                    }
                ],
                "abc": [
                    0.67038189,
                    0.37654774,
                    0.2401244
                ],
                "xyz": [
                    2.485125159743617,
                    3.149803224814257,
                    1.8730705072995315
                ],
                "label": "O",
                "properties": {}
            },
            {
                "species": [
                    {
                        "element": "O",
                        "occu": 1
                    }
                ],
                "abc": [
                    0.76380492,
                    0.14829587,
                    0.45834028
                ],
                "xyz": [
                    1.9908726583247924,
                    1.2404876193192285,
                    3.575439335758592
                ],
                "label": "O",
                "properties": {}
            },
            {
                "species": [
                    {
                        "element": "O",
                        "occu": 1
                    }
                ],
                "abc": [
                    0.7866673,
                    0.80186479,
                    0.6143864
                ],
                "xyz": [
                    1.4029147813709608,
                    6.707559316136134,
                    4.792819371108868
                ],
                "label": "O",
                "properties": {}
            },
            {
                "species": [
                    {
                        "element": "O",
                        "occu": 1
                    }
                ],
                "abc": [
                    0.23619508,
                    0.64829587,
                    0.04165972
                ],
                "xyz": [
                    1.0709615066752074,
                    5.4229628943192285,
                    0.324918124241408
                ],
                "label": "O",
                "properties": {}
            },
            {
                "species": [
                    {
                        "element": "O",
                        "occu": 1
                    }
                ],
                "abc": [
                    0.70238158,
                    0.43647785,
                    0.63858213
                ],
                "xyz": [
                    0.8430232994029621,
                    3.6511156314203173,
                    4.981613244432752
                ],
                "label": "O",
                "properties": {}
            },
            {
                "species": [
                    {
                        "element": "O",
                        "occu": 1
                    }
                ],
                "abc": [
                    0.32961811,
                    0.87654774,
                    0.2598756
                ],
                "xyz": [
                    0.576709005256383,
                    7.332278499814257,
                    2.027286952700468
                ],
                "label": "O",
                "properties": {}
            }
        ]
    },
    "spacegroup": {
        "source": "spglib",
        "symbol": "P2_1/c",
        "number": 14,
        "point_group": "2/m",
        "crystal_system": "monoclinic",
        "hall": "-P 2ybc"
    },
    "dielectric": {
        "epsilon_ionic": [
            [
                3.25534244,
                -4e-08,
                0.23657657
            ],
            [
                -4e-08,
                2.81998905,
                -2e-08
            ],
            [
                0.23657657,
                -2e-08,
                3.14506811
            ]
        ],
        "epsilon_ionic_avg": 3.0734665333333346,
        "epsilon_ionic_eig": [
            3.4431220929381663,
            2.95728845706184,
            2.8199890499999976
        ],
        "epsilon_electronic": [
            [
                2.87068278,
                0.0,
                0.00039362
            ],
            [
                0.0,
                2.69616651,
                0.0
            ],
            [
                0.00039318,
                0.0,
                2.76632074
            ]
        ],
        "epsilon_electronic_avg": 2.7777233433333333,
        "epsilon_electronic_eig": [
            2.8706842629272455,
            2.7663192570727544,
            2.69616651
        ]
    },
    "phonon": {
        "lowest_freq": -0.06214557616325301,
        "frequency": [
            -0.06214557616325301,
            -0.04180274773897799,
            -0.03783506847573644,
            2.595915347128111,
            2.9968058412417244,
            3.179908850937181,
            3.3461093560662225,
            3.6289849380557926,
            3.842803737066282,
            3.970509583785001,
            4.097063654905843,
            4.3925963979541685,
            4.484386172585661,
            4.8536888302308085,
            4.8793903797037235,
            5.21213979202424,
            5.84695752496947,
            6.106300901051603,
            6.4812312578096964,
            6.622558129080909,
            6.647148328307565,
            6.843086178201786,
            7.377699227869863,
            7.515450490749559,
            7.523698698034899,
            7.53526800813997,
            7.795388492826918,
            8.203111001353976,
            8.439391534789749,
            8.600560109799414,
            8.698422111637049,
            8.713338767308457,
            9.123899403976287,
            9.463435184835236,
            9.467086651950968,
            9.73294319952635,
            9.82734740772803,
            9.91669673455891,
            10.14703372419366,
            10.19257985168028,
            10.546893735518957,
            10.74582868134956,
            11.024615300000804,
            11.71757370181357,
            11.742419763629393,
            11.945966478777729,
            12.042765051629496,
            12.87802734204181,
            12.891254196379132,
            13.306970606873032,
            13.717496459207743,
            13.730092675080245,
            14.040801660241938,
            14.197764372820219,
            14.257942564386784,
            14.412425596804978,
            14.811620740605722,
            14.926278257176241,
            15.235656890732693,
            15.438686588393972,
            16.22246754854641,
            16.474037553398457,
            22.8495126960962,
            23.13367221595926,
            23.324694624702975,
            24.420761388717125,
            24.56933616821354,
            24.70048007139223,
            24.704145532250735,
            24.845753378228338,
            24.9784619191679,
            25.324701536663234,
            25.5920000570425,
            25.777630926355865,
            25.979154090619023,
            26.260223950752707,
            26.428539346632892,
            27.234277900751117
        ]
    },
    "born_effective_charge": {
        "avg_abs_trace": 1.959035641025641,
        "tensors": [
            [
                [
                    2.28762,
                    -0.11468,
                    0.29776
                ],
                [
                    0.03149,
                    2.36291,
                    0.39196
                ],
                [
                    -0.19245,
                    -0.39908,
                    2.16061
                ]
            ],
            [
                [
                    2.10466,
                    0.04048,
                    -0.12506
                ],
                [
                    -0.33176,
                    2.01278,
                    -0.01785
                ],
                [
                    0.02306,
                    0.10135,
                    1.91549
                ]
            ],
            [
                [
                    2.10467,
                    -0.04048,
                    -0.12507
                ],
                [
                    0.33176,
                    2.01278,
                    0.01785
                ],
                [
                    0.02304,
                    -0.10135,
                    1.9155
                ]
            ],
            [
                [
                    2.28762,
                    0.11468,
                    0.29776
                ],
                [
                    -0.03149,
                    2.36291,
                    -0.39196
                ],
                [
                    -0.19245,
                    0.39908,
                    2.16061
                ]
            ],
            [
                [
                    2.10466,
                    -0.04048,
                    -0.12506
                ],
                [
                    0.33175,
                    2.01278,
                    0.01785
                ],
                [
                    0.02306,
                    -0.10135,
                    1.91549
                ]
            ],
            [
                [
                    2.10467,
                    0.04048,
                    -0.12507
                ],
                [
                    -0.33175,
                    2.01278,
                    -0.01785
                ],
                [
                    0.02304,
                    0.10135,
                    1.9155
                ]
            ],
            [
                [
                    3.39085,
                    -0.0341,
                    -0.12779
                ],
                [
                    0.01329,
                    3.03712,
                    -0.01121
                ],
                [
                    -0.03599,
                    0.13991,
                    3.23422
                ]
            ],
            [
                [
                    3.39071,
                    0.03407,
                    -0.12782
                ],
                [
                    -0.01329,
                    3.03712,
                    0.01121
                ],
                [
                    -0.0359,
                    -0.13994,
                    3.23413
                ]
            ],
            [
                [
                    3.39085,
                    0.0341,
                    -0.12779
                ],
                [
                    -0.01329,
                    3.03714,
                    0.0112
                ],
                [
                    -0.03599,
                    -0.13991,
                    3.23422
                ]
            ],
            [
                [
                    3.39071,
                    -0.03407,
                    -0.12782
                ],
                [
                    0.01329,
                    3.03714,
                    -0.0112
                ],
                [
                    -0.0359,
                    0.13994,
                    3.23413
                ]
            ],
            [
                [
                    -1.4017,
                    -0.20268,
                    0.08313
                ],
                [
                    -0.3645,
                    -1.72932,
                    -0.38061
                ],
                [
                    0.08373,
                    -0.36195,
                    -1.47484
                ]
            ],
            [
                [
                    -1.1091,
                    0.09239,
                    0.04033
                ],
                [
                    0.21507,
                    -1.81316,
                    0.46533
                ],
                [
                    -0.06433,
                    0.38723,
                    -2.00047
                ]
            ],
            [
                [
                    -1.88082,
                    0.13057,
                    0.43787
                ],
                [
                    0.15589,
                    -1.34922,
                    -0.16623
                ],
                [
                    0.54179,
                    -0.23866,
                    -1.51993
                ]
            ],
            [
                [
                    -2.24743,
                    -0.09724,
                    -0.45729
                ],
                [
                    -0.08996,
                    -1.33987,
                    0.02137
                ],
                [
                    -0.45203,
                    0.12948,
                    -1.23475
                ]
            ],
            [
                [
                    -1.88094,
                    -0.13065,
                    0.43789
                ],
                [
                    -0.15589,
                    -1.34922,
                    0.16623
                ],
                [
                    0.54188,
                    0.23902,
                    -1.51988
                ]
            ],
            [
                [
                    -1.40174,
                    0.20284,
                    0.08302
                ],
                [
                    0.3645,
                    -1.72932,
                    0.38061
                ],
                [
                    0.08362,
                    0.36203,
                    -1.47498
                ]
            ],
            [
                [
                    -2.24771,
                    0.09719,
                    -0.45749
                ],
                [
                    0.08996,
                    -1.33987,
                    -0.02137
                ],
                [
                    -0.45208,
                    -0.12934,
                    -1.23473
                ]
            ],
            [
                [
                    -1.10908,
                    -0.09243,
                    0.04051
                ],
                [
                    -0.21507,
                    -1.81316,
                    -0.46533
                ],
                [
                    -0.06434,
                    -0.38758,
                    -2.00037
                ]
            ],
            [
                [
                    -1.1091,
                    -0.09239,
                    0.04033
                ],
                [
                    -0.21509,
                    -1.81314,
                    -0.46509
                ],
                [
                    -0.06433,
                    -0.38723,
                    -2.00047
                ]
            ],
            [
                [
                    -2.24743,
                    0.09724,
                    -0.45729
                ],
                [
                    0.08969,
                    -1.33983,
                    -0.02156
                ],
                [
                    -0.45203,
                    -0.12948,
                    -1.23475
                ]
            ],
            [
                [
                    -1.4017,
                    0.20268,
                    0.08313
                ],
                [
                    0.36438,
                    -1.72907,
                    0.38054
                ],
                [
                    0.08373,
                    0.36195,
                    -1.47484
                ]
            ],
            [
                [
                    -1.88082,
                    -0.13057,
                    0.43787
                ],
                [
                    -0.15591,
                    -1.34912,
                    0.1659
                ],
                [
                    0.54179,
                    0.23866,
                    -1.51993
                ]
            ],
            [
                [
                    -2.24771,
                    -0.09719,
                    -0.45749
                ],
                [
                    -0.08969,
                    -1.33983,
                    0.02156
                ],
                [
                    -0.45208,
                    0.12934,
                    -1.23473
                ]
            ],
            [
                [
                    -1.88094,
                    0.13065,
                    0.43789
                ],
                [
                    0.15591,
                    -1.34912,
                    -0.1659
                ],
                [
                    0.54188,
                    -0.23902,
                    -1.51988
                ]
            ],
            [
                [
                    -1.10908,
                    0.09243,
                    0.04051
                ],
                [
                    0.21509,
                    -1.81314,
                    0.46509
                ],
                [
                    -0.06434,
                    0.38758,
                    -2.00037
                ]
            ],
            [
                [
                    -1.40174,
                    -0.20284,
                    0.08302
                ],
                [
                    -0.36438,
                    -1.72907,
                    -0.38054
                ],
                [
                    0.08362,
                    -0.36203,
                    -1.47498
                ]
            ]
        ]
    },
    "band_gap": 3.7674000000000003,
    "is_direct": false,
    "formula": "Mg3(AsO4)2"
}