{
    "mp_id": "mp-7041",
    "nelements": 3,
    "nsites": 4,
    "elements": [
        "Ca",
        "Hg",
        "O"
    ],
    "structure": {
        "@module": "pymatgen.core.structure",
        "@class": "Structure",
        "charge": null,
        "lattice": {
            "matrix": [
                [
                    1.77980917,
                    1.02757371,
                    6.21940281
                ],
                [
                    -1.77980917,
                    1.02757371,
                    6.21940281
                ],
                [
                    0.0,
                    -2.05514642,
                    6.21940281
                ]
            ],
            "a": 6.5501602823240255,
            "b": 6.5501602823240255,
            "c": 6.550160159925459,
            "alpha": 31.533280168561767,
            "beta": 31.533280168561767,
            "gamma": 31.53327813625437,
            "volume": 68.24741708634073
        },
        "sites": [
            {
                "species": [
                    {
                        "element": "Ca",
                        "occu": 1
                    }
                ],
                "abc": [
                    0.5,
                    0.5,
                    0.5
                ],
                "xyz": [
                    0.0,
                    5.00000000069889e-07,
                    9.329104215000001
                ],
                "label": "Ca",
                "properties": {}
            },
            {
                "species": [
                    {
                        "element": "Hg",
                        "occu": 1
                    }
                ],
                "abc": [
                    0.0,
                    0.0,
                    0.0
                ],
                "xyz": [
                    0.0,
                    0.0,
                    0.0
                ],
                "label": "Hg",
                "properties": {}
            },
            {
                "species": [
                    {
                        "element": "O",
                        "occu": 1
                    }
                ],
                "abc": [
                    0.89400146,
                    0.89400146,
                    0.89400146
                ],
                "xyz": [
                    0.0,
                    8.940014601943602e-07,
                    16.68046557740431
                ],
                "label": "O",
                "properties": {}
            },
            {
                "species": [
                    {
                        "element": "O",
                        "occu": 1
                    }
                ],
                "abc": [
                    0.10599854,
                    0.10599854,
                    0.10599854
                ],
                "xyz": [
                    0.0,
                    1.0599854002868447e-07,
                    1.9777428525956924
                ],
                "label": "O",
                "properties": {}
            }
        ]
    },
    "spacegroup": {
        "source": "spglib",
        "symbol": "R-3m",
        "number": 166,
        "point_group": "-3m",
        "crystal_system": "trigonal",
        "hall": "-R 3 2\""
    },
    "dielectric": {
        "epsilon_ionic": [
            [
                3.31136283,
                1e-08,
                0.0
            ],
            [
                1e-08,
                3.3114135,
                -3.72e-06
            ],
            [
                0.0,
                -3.72e-06,
                4.20442517
            ]
        ],
        "epsilon_ionic_avg": 3.609067166666667,
        "epsilon_ionic_eig": [
            3.311362829998027,
            3.3114134999864784,
            4.204425170015496
        ],
        "epsilon_electronic": [
            [
                3.84712081,
                0.0,
                0.0
            ],
            [
                0.0,
                3.84712177,
                -2.8e-07
            ],
            [
                0.0,
                -2.8e-07,
                5.19497172
            ]
        ],
        "epsilon_electronic_avg": 4.296404766666667,
        "epsilon_electronic_eig": [
            5.1949717200000585,
            3.847121769999942,
            3.84712081
        ]
    },
    "phonon": {
        "lowest_freq": -0.005838074100983839,
        "frequency": [
            -0.005838074100983839,
            -0.0058380733683787885,
            -0.0020758192916066373,
            3.4413340156734407,
            3.4413344417874683,
            7.374628257298799,
            7.374629168667204,
            7.627454097203301,
            9.147361120891297,
            9.147362256410581,
            18.345157336280323,
            19.741972695678214
        ]
    },
    "born_effective_charge": {
        "avg_abs_trace": 1.8844133333333333,
        "tensors": [
            [
                [
                    2.45996,
                    -0.0,
                    -0.0
                ],
                [
                    0.0,
                    2.45997,
                    -1e-05
                ],
                [
                    0.0,
                    -0.0,
                    2.87284
                ]
            ],
            [
                [
                    0.41256,
                    -0.0,
                    -0.0
                ],
                [
                    0.0,
                    0.41259,
                    1e-05
                ],
                [
                    0.0,
                    -0.0,
                    2.68856
                ]
            ],
            [
                [
                    -1.43626,
                    -6e-05,
                    0.00018
                ],
                [
                    0.0,
                    -1.43643,
                    4e-05
                ],
                [
                    0.0,
                    0.0,
                    -2.78064
                ]
            ],
            [
                [
                    -1.43626,
                    6e-05,
                    -0.00018
                ],
                [
                    0.0,
                    -1.43613,
                    -4e-05
                ],
                [
                    0.0,
                    0.0,
                    -2.78076
                ]
            ]
        ]
    },
    "band_gap": 2.2303,
    "is_direct": false,
    "formula": "CaHgO2"
}