{
    "mp_id": "mp-752692",
    "nelements": 3,
    "nsites": 20,
    "elements": [
        "K",
        "O",
        "Sn"
    ],
    "structure": {
        "@module": "pymatgen.core.structure",
        "@class": "Structure",
        "charge": null,
        "lattice": {
            "matrix": [
                [
                    7.21603632,
                    -0.000337,
                    0.00054518
                ],
                [
                    3.56908038,
                    6.56418947,
                    -0.00017636
                ],
                [
                    3.32229435,
                    -0.92718696,
                    9.30243014
                ]
            ],
            "a": 7.216036348463703,
            "b": 7.471741308962903,
            "c": 9.921316541488654,
            "alpha": 85.53602770621654,
            "beta": 70.43114315768074,
            "gamma": 61.468870909349974,
            "volume": 440.62852054364504
        },
        "sites": [
            {
                "species": [
                    {
                        "element": "K",
                        "occu": 1
                    }
                ],
                "abc": [
                    0.39063091,
                    0.5735429,
                    0.86177503
                ],
                "xyz": [
                    7.728897858893034,
                    2.9656860518869834,
                    8.016713827105074
                ],
                "label": "K",
                "properties": {}
            },
            {
                "species": [
                    {
                        "element": "K",
                        "occu": 1
                    }
                ],
                "abc": [
                    0.93752279,
                    0.54384566,
                    0.82522933
                ],
                "xyz": [
                    11.44788211883517,
                    2.804448135711433,
                    7.677053397858061
                ],
                "label": "K",
                "properties": {}
            },
            {
                "species": [
                    {
                        "element": "K",
                        "occu": 1
                    }
                ],
                "abc": [
                    0.93129399,
                    0.06458919,
                    0.8127009
                ],
                "xyz": [
                    9.650806875536723,
                    -0.3298638420610646,
                    7.560589678873046
                ],
                "label": "K",
                "properties": {}
            },
            {
                "species": [
                    {
                        "element": "K",
                        "occu": 1
                    }
                ],
                "abc": [
                    0.24245139,
                    0.25489,
                    0.48886666
                ],
                "xyz": [
                    4.283419876554055,
                    1.2197937555591163,
                    4.547735179673533
                ],
                "label": "K",
                "properties": {}
            },
            {
                "species": [
                    {
                        "element": "K",
                        "occu": 1
                    }
                ],
                "abc": [
                    0.75754861,
                    0.74511,
                    0.51113334
                ],
                "xyz": [
                    9.823991173445943,
                    4.4168717544408835,
                    4.755063780326467
                ],
                "label": "K",
                "properties": {}
            },
            {
                "species": [
                    {
                        "element": "K",
                        "occu": 1
                    }
                ],
                "abc": [
                    0.06870601,
                    0.93541081,
                    0.1872991
                ],
                "xyz": [
                    4.456604174463276,
                    5.966529352061065,
                    1.7422092811269543
                ],
                "label": "K",
                "properties": {}
            },
            {
                "species": [
                    {
                        "element": "K",
                        "occu": 1
                    }
                ],
                "abc": [
                    0.06247721,
                    0.45615434,
                    0.17477067
                ],
                "xyz": [
                    2.659528931164831,
                    2.832217374288567,
                    1.6257455621419392
                ],
                "label": "K",
                "properties": {}
            },
            {
                "species": [
                    {
                        "element": "K",
                        "occu": 1
                    }
                ],
                "abc": [
                    0.60936909,
                    0.4264571,
                    0.13822497
                ],
                "xyz": [
                    6.378513191106966,
                    2.6709794581130155,
                    1.286085132894926
                ],
                "label": "K",
                "properties": {}
            },
            {
                "species": [
                    {
                        "element": "Sn",
                        "occu": 1
                    }
                ],
                "abc": [
                    0.39586808,
                    0.0565917,
                    0.8761751
                ],
                "xyz": [
                    5.969490353690197,
                    -0.441032893710257,
                    8.150763497005157
                ],
                "label": "Sn",
                "properties": {}
            },
            {
                "species": [
                    {
                        "element": "Sn",
                        "occu": 1
                    }
                ],
                "abc": [
                    0.69263424,
                    0.29558751,
                    0.52770388
                ],
                "xyz": [
                    7.806237033826728,
                    1.4507788465892348,
                    4.909253958828644
                ],
                "label": "Sn",
                "properties": {}
            },
            {
                "species": [
                    {
                        "element": "Sn",
                        "occu": 1
                    }
                ],
                "abc": [
                    0.30736576,
                    0.70441249,
                    0.47229612
                ],
                "xyz": [
                    6.30117401617327,
                    4.1858866634107645,
                    4.393545001171357
                ],
                "label": "Sn",
                "properties": {}
            },
            {
                "species": [
                    {
                        "element": "Sn",
                        "occu": 1
                    }
                ],
                "abc": [
                    0.60413192,
                    0.9434083,
                    0.1238249
                ],
                "xyz": [
                    8.137920696309804,
                    6.077698403710257,
                    1.1520354629948437
                ],
                "label": "Sn",
                "properties": {}
            },
            {
                "species": [
                    {
                        "element": "O",
                        "occu": 1
                    }
                ],
                "abc": [
                    0.06522186,
                    0.21502323,
                    0.98315058
                ],
                "xyz": [
                    4.504394119188405,
                    0.4998668449121313,
                    9.145687223707274
                ],
                "label": "O",
                "properties": {}
            },
            {
                "species": [
                    {
                        "element": "O",
                        "occu": 1
                    }
                ],
                "abc": [
                    0.5050717,
                    0.18971701,
                    0.99187906
                ],
                "xyz": [
                    7.617045186468719,
                    0.325510859829927,
                    9.227127559476392
                ],
                "label": "O",
                "properties": {}
            },
            {
                "species": [
                    {
                        "element": "O",
                        "occu": 1
                    }
                ],
                "abc": [
                    0.34085616,
                    0.48473654,
                    0.62378276
                ],
                "xyz": [
                    6.262084044014222,
                    2.6034243821215037,
                    5.802795887261501
                ],
                "label": "O",
                "properties": {}
            },
            {
                "species": [
                    {
                        "element": "O",
                        "occu": 1
                    }
                ],
                "abc": [
                    0.80110658,
                    0.40124782,
                    0.64968969
                ],
                "xyz": [
                    9.37136028569101,
                    2.0312129333725526,
                    6.0440589371230065
                ],
                "label": "O",
                "properties": {}
            },
            {
                "species": [
                    {
                        "element": "O",
                        "occu": 1
                    }
                ],
                "abc": [
                    0.19889342,
                    0.59875218,
                    0.35031031
                ],
                "xyz": [
                    4.736050764308991,
                    3.605452576627447,
                    3.2587400228769945
                ],
                "label": "O",
                "properties": {}
            },
            {
                "species": [
                    {
                        "element": "O",
                        "occu": 1
                    }
                ],
                "abc": [
                    0.65914384,
                    0.51526346,
                    0.37621724
                ],
                "xyz": [
                    7.845327005985777,
                    3.0332411278784956,
                    3.5000030727384996
                ],
                "label": "O",
                "properties": {}
            },
            {
                "species": [
                    {
                        "element": "O",
                        "occu": 1
                    }
                ],
                "abc": [
                    0.4949283,
                    0.81028299,
                    0.00812094
                ],
                "xyz": [
                    6.490365863531281,
                    5.311154650170073,
                    0.07567140052360921
                ],
                "label": "O",
                "properties": {}
            },
            {
                "species": [
                    {
                        "element": "O",
                        "occu": 1
                    }
                ],
                "abc": [
                    0.93477814,
                    0.78497677,
                    0.01684942
                ],
                "xyz": [
                    9.603016930811593,
                    5.136798665087869,
                    0.15711173629272682
                ],
                "label": "O",
                "properties": {}
            }
        ]
    },
    "spacegroup": {
        "source": "spglib",
        "symbol": "P-1",
        "number": 2,
        "point_group": "-1",
        "crystal_system": "triclinic",
        "hall": "-P 1"
    },
    "dielectric": {
        "epsilon_ionic": [
            [
                4.34347156,
                -0.57211744,
                0.47536178
            ],
            [
                -0.57211744,
                4.68618507,
                -1.1437914
            ],
            [
                0.47536178,
                -1.1437914,
                3.86653247
            ]
        ],
        "epsilon_ionic_avg": 4.298729700000001,
        "epsilon_ionic_eig": [
            5.855299010184618,
            3.9828560227113146,
            3.0580340671040687
        ],
        "epsilon_electronic": [
            [
                3.79656361,
                -0.11699738,
                0.09621213
            ],
            [
                -0.11699608,
                3.73108636,
                -0.17670631
            ],
            [
                0.09621179,
                -0.17670743,
                3.77913743
            ]
        ],
        "epsilon_electronic_avg": 3.7689291333333332,
        "epsilon_electronic_eig": [
            4.029755883350271,
            3.704069731479693,
            3.5729617851700346
        ]
    },
    "phonon": {
        "lowest_freq": -0.060145363824386164,
        "frequency": [
            -0.060145363824386164,
            -0.04587760279768496,
            -0.02284732636698082,
            1.3950161932320415,
            1.646468142786441,
            1.7123616266622717,
            2.0588240729260696,
            2.218401485865917,
            2.2830176544260317,
            2.4296815362298156,
            2.434016832307161,
            2.756445654550134,
            2.7673989819149436,
            2.8764445233807465,
            2.9103513617976926,
            2.917202223471353,
            2.9683746200271948,
            3.0853036810304157,
            3.257259968860368,
            3.4903833599391216,
            3.5095750362202147,
            3.5960177608283757,
            3.7763864919643346,
            3.7968902424682938,
            4.02042206859974,
            4.049678423055915,
            4.218108860410066,
            4.44524858447157,
            4.556416327740252,
            4.720736801191064,
            4.7852863310904,
            4.924656835251603,
            5.247516285384873,
            5.327118413066066,
            5.63251332840364,
            5.767048868992207,
            5.798162286762959,
            6.059437746095414,
            6.186756322147296,
            6.336451697102141,
            6.462803775680103,
            6.9690354172553315,
            7.415636164153248,
            7.524253651153888,
            8.781830087096543,
            8.953532776829409,
            9.474824103420612,
            9.858696453103606,
            11.018450066353836,
            11.268835424174522,
            11.670551422432824,
            12.33353523264849,
            12.669622384243421,
            13.372499358021859,
            13.583256136274615,
            13.951898630524058,
            16.140374213102792,
            16.178546221289135,
            16.65407055136771,
            16.73714351989515
        ]
    },
    "born_effective_charge": {
        "avg_abs_trace": 1.5504639999999998,
        "tensors": [
            [
                [
                    1.15221,
                    0.09826,
                    -0.01312
                ],
                [
                    0.07074,
                    1.26129,
                    0.12487
                ],
                [
                    -0.02395,
                    0.12039,
                    1.34642
                ]
            ],
            [
                [
                    1.141,
                    -0.10918,
                    0.03388
                ],
                [
                    -0.08576,
                    1.25698,
                    0.14715
                ],
                [
                    0.04457,
                    0.11685,
                    1.22541
                ]
            ],
            [
                [
                    1.3516,
                    -0.00949,
                    -0.00108
                ],
                [
                    -0.00365,
                    0.9614,
                    -0.17317
                ],
                [
                    0.00621,
                    -0.16017,
                    1.21585
                ]
            ],
            [
                [
                    1.37316,
                    0.16064,
                    -0.04634
                ],
                [
                    0.11389,
                    1.11845,
                    0.0106
                ],
                [
                    -0.01246,
                    -0.03869,
                    0.89015
                ]
            ],
            [
                [
                    1.37327,
                    0.16052,
                    -0.04633
                ],
                [
                    0.11387,
                    1.11848,
                    0.01061
                ],
                [
                    -0.01229,
                    -0.03882,
                    0.89008
                ]
            ],
            [
                [
                    1.35159,
                    -0.00946,
                    -0.00099
                ],
                [
                    -0.00362,
                    0.9614,
                    -0.17319
                ],
                [
                    0.00613,
                    -0.16009,
                    1.216
                ]
            ],
            [
                [
                    1.14099,
                    -0.10916,
                    0.03392
                ],
                [
                    -0.08579,
                    1.25699,
                    0.14708
                ],
                [
                    0.04454,
                    0.11682,
                    1.2255
                ]
            ],
            [
                [
                    1.15225,
                    0.0983,
                    -0.01317
                ],
                [
                    0.07075,
                    1.2613,
                    0.12485
                ],
                [
                    -0.02395,
                    0.12043,
                    1.34646
                ]
            ],
            [
                [
                    1.51368,
                    -0.61394,
                    0.25771
                ],
                [
                    -0.67713,
                    1.07355,
                    -0.32365
                ],
                [
                    0.3968,
                    -0.11788,
                    1.87455
                ]
            ],
            [
                [
                    1.44064,
                    -0.37212,
                    0.39901
                ],
                [
                    -0.34466,
                    2.07049,
                    -0.20397
                ],
                [
                    0.41787,
                    -0.34228,
                    0.99
                ]
            ],
            [
                [
                    1.44046,
                    -0.37194,
                    0.3991
                ],
                [
                    -0.34469,
                    2.07035,
                    -0.20419
                ],
                [
                    0.41691,
                    -0.34228,
                    0.98993
                ]
            ],
            [
                [
                    1.51401,
                    -0.61386,
                    0.25762
                ],
                [
                    -0.67717,
                    1.07352,
                    -0.32362
                ],
                [
                    0.39707,
                    -0.11768,
                    1.87452
                ]
            ],
            [
                [
                    -2.21942,
                    0.64806,
                    0.67167
                ],
                [
                    0.5192,
                    -1.57696,
                    -0.35961
                ],
                [
                    0.26107,
                    -0.26405,
                    -1.87203
                ]
            ],
            [
                [
                    -1.79568,
                    -0.0867,
                    -0.91484
                ],
                [
                    0.05828,
                    -1.82579,
                    0.61594
                ],
                [
                    -0.58871,
                    0.32707,
                    -2.24784
                ]
            ],
            [
                [
                    -1.59576,
                    0.78293,
                    0.30501
                ],
                [
                    0.39061,
                    -2.67407,
                    0.24836
                ],
                [
                    0.11778,
                    0.71189,
                    -1.69626
                ]
            ],
            [
                [
                    -2.36147,
                    -0.49858,
                    -0.69201
                ],
                [
                    -0.04164,
                    -1.66521,
                    -0.08639
                ],
                [
                    -0.6191,
                    -0.35317,
                    -1.72609
                ]
            ],
            [
                [
                    -2.36168,
                    -0.49869,
                    -0.69221
                ],
                [
                    -0.0414,
                    -1.66515,
                    -0.08619
                ],
                [
                    -0.61881,
                    -0.35326,
                    -1.72631
                ]
            ],
            [
                [
                    -1.59554,
                    0.78303,
                    0.30501
                ],
                [
                    0.39065,
                    -2.67419,
                    0.24847
                ],
                [
                    0.11776,
                    0.71196,
                    -1.69665
                ]
            ],
            [
                [
                    -1.79569,
                    -0.08672,
                    -0.91467
                ],
                [
                    0.0582,
                    -1.82583,
                    0.61588
                ],
                [
                    -0.58858,
                    0.3271,
                    -2.24752
                ]
            ],
            [
                [
                    -2.21961,
                    0.6481,
                    0.67182
                ],
                [
                    0.51932,
                    -1.577,
                    -0.35986
                ],
                [
                    0.26113,
                    -0.26414,
                    -1.87216
                ]
            ]
        ]
    },
    "band_gap": 1.4469,
    "is_direct": true,
    "formula": "K2SnO2"
}