{
    "mp_id": "mp-752515",
    "nelements": 3,
    "nsites": 26,
    "elements": [
        "O",
        "Ta",
        "Y"
    ],
    "structure": {
        "@module": "pymatgen.core.structure",
        "@class": "Structure",
        "charge": null,
        "lattice": {
            "matrix": [
                [
                    5.26371086,
                    0.0,
                    0.00018424
                ],
                [
                    0.0,
                    7.4700132,
                    0.0
                ],
                [
                    -0.43580256,
                    0.0,
                    8.22347202
                ]
            ],
            "a": 5.263710863224377,
            "b": 7.4700132,
            "c": 8.23501159288956,
            "alpha": 90.0,
            "beta": 93.0315442563868,
            "gamma": 90.0,
            "volume": 323.34743412918556
        },
        "sites": [
            {
                "species": [
                    {
                        "element": "Y",
                        "occu": 1
                    }
                ],
                "abc": [
                    0.0348238,
                    0.75,
                    0.43373176
                ],
                "xyz": [
                    -0.005718997114837615,
                    5.6025099,
                    3.5667874084822677
                ],
                "label": "Y",
                "properties": {}
            },
            {
                "species": [
                    {
                        "element": "Y",
                        "occu": 1
                    }
                ],
                "abc": [
                    0.9651762,
                    0.25,
                    0.56626824
                ],
                "xyz": [
                    4.8336272971148375,
                    1.8675033,
                    4.656868851517733
                ],
                "label": "Y",
                "properties": {}
            },
            {
                "species": [
                    {
                        "element": "Ta",
                        "occu": 1
                    }
                ],
                "abc": [
                    0.0,
                    0.0,
                    0.0
                ],
                "xyz": [
                    0.0,
                    0.0,
                    0.0
                ],
                "label": "Ta",
                "properties": {}
            },
            {
                "species": [
                    {
                        "element": "Ta",
                        "occu": 1
                    }
                ],
                "abc": [
                    0.0,
                    0.5,
                    0.0
                ],
                "xyz": [
                    0.0,
                    3.7350066,
                    0.0
                ],
                "label": "Ta",
                "properties": {}
            },
            {
                "species": [
                    {
                        "element": "Ta",
                        "occu": 1
                    }
                ],
                "abc": [
                    0.46829724,
                    0.50620804,
                    0.69484376
                ],
                "xyz": [
                    2.1621665784880006,
                    3.781380740746128,
                    5.7141144977150935
                ],
                "label": "Ta",
                "properties": {}
            },
            {
                "species": [
                    {
                        "element": "Ta",
                        "occu": 1
                    }
                ],
                "abc": [
                    0.46829724,
                    0.99379196,
                    0.69484376
                ],
                "xyz": [
                    2.1621665784880006,
                    7.423639059253873,
                    5.7141144977150935
                ],
                "label": "Ta",
                "properties": {}
            },
            {
                "species": [
                    {
                        "element": "Ta",
                        "occu": 1
                    }
                ],
                "abc": [
                    0.53170276,
                    0.00620804,
                    0.30515624
                ],
                "xyz": [
                    2.665741721511999,
                    0.046374140746128,
                    2.5095417622849077
                ],
                "label": "Ta",
                "properties": {}
            },
            {
                "species": [
                    {
                        "element": "Ta",
                        "occu": 1
                    }
                ],
                "abc": [
                    0.53170276,
                    0.49379196,
                    0.30515624
                ],
                "xyz": [
                    2.665741721511999,
                    3.688632459253872,
                    2.5095417622849077
                ],
                "label": "Ta",
                "properties": {}
            },
            {
                "species": [
                    {
                        "element": "O",
                        "occu": 1
                    }
                ],
                "abc": [
                    0.10048337,
                    0.75,
                    0.9777911
                ],
                "xyz": [
                    0.10279154139318214,
                    5.6025099,
                    8.040856265311112
                ],
                "label": "O",
                "properties": {}
            },
            {
                "species": [
                    {
                        "element": "O",
                        "occu": 1
                    }
                ],
                "abc": [
                    0.14513675,
                    0.06640516,
                    0.78347301
                ],
                "xyz": [
                    0.42251834371119945,
                    0.49604742174811206,
                    6.442895116155001
                ],
                "label": "O",
                "properties": {}
            },
            {
                "species": [
                    {
                        "element": "O",
                        "occu": 1
                    }
                ],
                "abc": [
                    0.14513675,
                    0.43359484,
                    0.78347301
                ],
                "xyz": [
                    0.42251834371119945,
                    3.238959178251888,
                    6.442895116155001
                ],
                "label": "O",
                "properties": {}
            },
            {
                "species": [
                    {
                        "element": "O",
                        "occu": 1
                    }
                ],
                "abc": [
                    0.25719888,
                    0.04424386,
                    0.46860497
                ],
                "xyz": [
                    1.1496012922811136,
                    0.33050221821895204,
                    3.853607245549591
                ],
                "label": "O",
                "properties": {}
            },
            {
                "species": [
                    {
                        "element": "O",
                        "occu": 1
                    }
                ],
                "abc": [
                    0.25719888,
                    0.45575614,
                    0.46860497
                ],
                "xyz": [
                    1.1496012922811136,
                    3.404504381781048,
                    3.853607245549591
                ],
                "label": "O",
                "properties": {}
            },
            {
                "species": [
                    {
                        "element": "O",
                        "occu": 1
                    }
                ],
                "abc": [
                    0.33127068,
                    0.75,
                    0.65340754
                ],
                "xyz": [
                    1.4589563972602821,
                    5.6025099,
                    5.373339656157115
                ],
                "label": "O",
                "properties": {}
            },
            {
                "species": [
                    {
                        "element": "O",
                        "occu": 1
                    }
                ],
                "abc": [
                    0.32764244,
                    0.0565751,
                    0.1198847
                ],
                "xyz": [
                    1.6723690104600664,
                    0.42261674379132,
                    0.9859288409192397
                ],
                "label": "O",
                "properties": {}
            },
            {
                "species": [
                    {
                        "element": "O",
                        "occu": 1
                    }
                ],
                "abc": [
                    0.32764244,
                    0.4434249,
                    0.1198847
                ],
                "xyz": [
                    1.6723690104600664,
                    3.3123898562086804,
                    0.9859288409192397
                ],
                "label": "O",
                "properties": {}
            },
            {
                "species": [
                    {
                        "element": "O",
                        "occu": 1
                    }
                ],
                "abc": [
                    0.41731745,
                    0.75,
                    0.31259618
                ],
                "xyz": [
                    2.060408178142286,
                    5.6025099,
                    2.5707028263558716
                ],
                "label": "O",
                "properties": {}
            },
            {
                "species": [
                    {
                        "element": "O",
                        "occu": 1
                    }
                ],
                "abc": [
                    0.58268255,
                    0.25,
                    0.68740382
                ],
                "xyz": [
                    2.7675001218577138,
                    1.8675033,
                    5.652953433644129
                ],
                "label": "O",
                "properties": {}
            },
            {
                "species": [
                    {
                        "element": "O",
                        "occu": 1
                    }
                ],
                "abc": [
                    0.67235756,
                    0.9434249,
                    0.8801153
                ],
                "xyz": [
                    3.1555392895399335,
                    7.047396456208681,
                    7.237727419080761
                ],
                "label": "O",
                "properties": {}
            },
            {
                "species": [
                    {
                        "element": "O",
                        "occu": 1
                    }
                ],
                "abc": [
                    0.67235756,
                    0.5565751,
                    0.8801153
                ],
                "xyz": [
                    3.1555392895399335,
                    4.15762334379132,
                    7.237727419080761
                ],
                "label": "O",
                "properties": {}
            },
            {
                "species": [
                    {
                        "element": "O",
                        "occu": 1
                    }
                ],
                "abc": [
                    0.66872932,
                    0.25,
                    0.34659246
                ],
                "xyz": [
                    3.3689519027397172,
                    1.8675033,
                    2.850316603842886
                ],
                "label": "O",
                "properties": {}
            },
            {
                "species": [
                    {
                        "element": "O",
                        "occu": 1
                    }
                ],
                "abc": [
                    0.74280112,
                    0.95575614,
                    0.53139503
                ],
                "xyz": [
                    3.678307007718886,
                    7.139510981781048,
                    4.37004901445041
                ],
                "label": "O",
                "properties": {}
            },
            {
                "species": [
                    {
                        "element": "O",
                        "occu": 1
                    }
                ],
                "abc": [
                    0.74280112,
                    0.54424386,
                    0.53139503
                ],
                "xyz": [
                    3.678307007718886,
                    4.0655088182189525,
                    4.37004901445041
                ],
                "label": "O",
                "properties": {}
            },
            {
                "species": [
                    {
                        "element": "O",
                        "occu": 1
                    }
                ],
                "abc": [
                    0.85486325,
                    0.93359484,
                    0.21652699
                ],
                "xyz": [
                    4.405389956288801,
                    6.9739657782518885,
                    1.780761143845
                ],
                "label": "O",
                "properties": {}
            },
            {
                "species": [
                    {
                        "element": "O",
                        "occu": 1
                    }
                ],
                "abc": [
                    0.85486325,
                    0.56640516,
                    0.21652699
                ],
                "xyz": [
                    4.405389956288801,
                    4.231054021748112,
                    1.780761143845
                ],
                "label": "O",
                "properties": {}
            },
            {
                "species": [
                    {
                        "element": "O",
                        "occu": 1
                    }
                ],
                "abc": [
                    0.89951663,
                    0.25,
                    0.0222089
                ],
                "xyz": [
                    4.725116758606818,
                    1.8675033,
                    0.18279999468888922
                ],
                "label": "O",
                "properties": {}
            }
        ]
    },
    "spacegroup": {
        "source": "spglib",
        "symbol": "P2_1/m",
        "number": 11,
        "point_group": "2/m",
        "crystal_system": "monoclinic",
        "hall": "-P 2yb"
    },
    "dielectric": {
        "epsilon_ionic": [
            [
                17.18728556,
                -1e-08,
                0.4296012
            ],
            [
                -1e-08,
                28.99578542,
                -3e-08
            ],
            [
                0.4296012,
                -3e-08,
                19.46779601
            ]
        ],
        "epsilon_ionic_avg": 21.883622329999998,
        "epsilon_ionic_eig": [
            17.109042049185614,
            19.54603952081438,
            28.995785419999997
        ],
        "epsilon_electronic": [
            [
                4.965445,
                0.0,
                0.1633953
            ],
            [
                0.0,
                5.25334122,
                0.0
            ],
            [
                0.16339645,
                0.0,
                4.90148239
            ]
        ],
        "epsilon_electronic_avg": 5.040089536666667,
        "epsilon_electronic_eig": [
            5.099959988761117,
            4.766967401238883,
            5.25334122
        ]
    },
    "phonon": {
        "lowest_freq": -0.02830170262617955,
        "frequency": [
            -0.02830170262617955,
            -0.023733002629160973,
            -0.022080509504028723,
            1.820830039226054,
            2.246666138249418,
            2.668320732052072,
            2.81598783355805,
            3.5769853874878415,
            4.03330370806756,
            4.130935555940915,
            4.311008298028038,
            4.359194748506439,
            4.463494979936363,
            4.90628376349979,
            5.077971027604967,
            5.132631660553543,
            5.270971684542389,
            5.477129464086977,
            5.549599331886854,
            5.780139291420879,
            6.032572814755009,
            6.268704471013099,
            6.3751721336747424,
            6.384547957429257,
            6.636985035053324,
            7.003344854449365,
            7.0411824873740185,
            7.7114209407557714,
            7.741655789788725,
            7.7437367287955645,
            7.787332115159245,
            8.600327231223176,
            8.637499025567545,
            8.813464518743364,
            9.110270007866937,
            9.216874247056095,
            9.744759056198582,
            9.942815013351801,
            10.02608978916215,
            10.66081440156903,
            10.763838851990984,
            10.7789884915761,
            10.886683866073719,
            10.967788010632038,
            11.104459742622874,
            11.157183159520162,
            11.546043473157223,
            11.777408360831874,
            11.943029441207617,
            12.03564753489367,
            12.404220808566391,
            12.497710525482868,
            12.576880830311726,
            13.457684517453698,
            13.710041274132683,
            13.838895530803114,
            13.930412082054973,
            14.240750876814495,
            14.496645215893075,
            14.507606202183412,
            14.783167390201879,
            15.377184103167487,
            16.799355385355934,
            16.89888575270746,
            17.825505076868634,
            18.028201180079755,
            18.1980562428586,
            18.515687828245678,
            18.604195454566835,
            18.88679505064385,
            19.270427932680384,
            19.677493711499977,
            20.04699784793806,
            23.566077192228995,
            24.895869100721068,
            24.957420484623555,
            26.68259377617333,
            27.21350218974133
        ]
    },
    "born_effective_charge": {
        "avg_abs_trace": 3.8532903846153843,
        "tensors": [
            [
                [
                    4.81171,
                    0.0,
                    0.51012
                ],
                [
                    1e-05,
                    3.79342,
                    -0.00014
                ],
                [
                    0.35753,
                    0.0,
                    3.45187
                ]
            ],
            [
                [
                    4.81169,
                    0.0,
                    0.51021
                ],
                [
                    -1e-05,
                    3.79342,
                    0.00014
                ],
                [
                    0.35768,
                    0.0,
                    3.45177
                ]
            ],
            [
                [
                    7.23743,
                    1.44751,
                    -0.76944
                ],
                [
                    -1.52043,
                    8.83798,
                    0.2374
                ],
                [
                    1.69115,
                    0.03226,
                    7.76379
                ]
            ],
            [
                [
                    7.23743,
                    -1.44751,
                    -0.76944
                ],
                [
                    1.52043,
                    8.83798,
                    -0.2374
                ],
                [
                    1.69115,
                    -0.03226,
                    7.76379
                ]
            ],
            [
                [
                    6.22109,
                    0.23887,
                    0.59807
                ],
                [
                    -1.07426,
                    6.86273,
                    -0.39041
                ],
                [
                    -0.44314,
                    -0.05578,
                    6.53741
                ]
            ],
            [
                [
                    6.22109,
                    -0.23887,
                    0.59807
                ],
                [
                    1.07413,
                    6.86305,
                    0.38964
                ],
                [
                    -0.44314,
                    0.05578,
                    6.53741
                ]
            ],
            [
                [
                    6.2211,
                    -0.23881,
                    0.59812
                ],
                [
                    1.07426,
                    6.86273,
                    0.39041
                ],
                [
                    -0.44307,
                    0.05584,
                    6.53764
                ]
            ],
            [
                [
                    6.2211,
                    0.23881,
                    0.59812
                ],
                [
                    -1.07413,
                    6.86305,
                    -0.38964
                ],
                [
                    -0.44307,
                    -0.05584,
                    6.53764
                ]
            ],
            [
                [
                    -1.39485,
                    0.0,
                    0.20806
                ],
                [
                    -8e-05,
                    -6.7101,
                    8e-05
                ],
                [
                    -0.13287,
                    0.0,
                    -1.3691
                ]
            ],
            [
                [
                    -3.47793,
                    0.28178,
                    1.56247
                ],
                [
                    0.46616,
                    -1.66565,
                    0.34956
                ],
                [
                    1.41236,
                    0.35108,
                    -3.27907
                ]
            ],
            [
                [
                    -3.47793,
                    -0.28178,
                    1.56247
                ],
                [
                    -0.46634,
                    -1.66557,
                    -0.34983
                ],
                [
                    1.41236,
                    -0.35108,
                    -3.27907
                ]
            ],
            [
                [
                    -2.7539,
                    0.2962,
                    0.26118
                ],
                [
                    0.29024,
                    -2.01622,
                    -0.28998
                ],
                [
                    0.57441,
                    -0.22497,
                    -3.12996
                ]
            ],
            [
                [
                    -2.7539,
                    -0.2962,
                    0.26118
                ],
                [
                    -0.29037,
                    -2.01625,
                    0.29021
                ],
                [
                    0.57441,
                    0.22497,
                    -3.12996
                ]
            ],
            [
                [
                    -1.75096,
                    0.0,
                    -0.54646
                ],
                [
                    9e-05,
                    -4.93309,
                    0.00077
                ],
                [
                    -0.52116,
                    0.0,
                    -1.71758
                ]
            ],
            [
                [
                    -3.42678,
                    -0.10614,
                    -2.2541
                ],
                [
                    0.00546,
                    -1.22013,
                    0.1179
                ],
                [
                    -2.46584,
                    0.08147,
                    -3.54212
                ]
            ],
            [
                [
                    -3.42678,
                    0.10614,
                    -2.2541
                ],
                [
                    -0.00513,
                    -1.22012,
                    -0.11771
                ],
                [
                    -2.46584,
                    -0.08147,
                    -3.54212
                ]
            ],
            [
                [
                    -2.02832,
                    0.0,
                    0.26252
                ],
                [
                    -0.00018,
                    -4.91007,
                    -0.00064
                ],
                [
                    0.44944,
                    0.0,
                    -1.30184
                ]
            ],
            [
                [
                    -2.02838,
                    0.0,
                    0.26247
                ],
                [
                    0.00018,
                    -4.91007,
                    0.00064
                ],
                [
                    0.44938,
                    0.0,
                    -1.30189
                ]
            ],
            [
                [
                    -3.42673,
                    -0.1061,
                    -2.25425
                ],
                [
                    0.00513,
                    -1.22012,
                    0.11771
                ],
                [
                    -2.46585,
                    0.08139,
                    -3.54206
                ]
            ],
            [
                [
                    -3.42673,
                    0.1061,
                    -2.25425
                ],
                [
                    -0.00546,
                    -1.22013,
                    -0.1179
                ],
                [
                    -2.46585,
                    -0.08139,
                    -3.54206
                ]
            ],
            [
                [
                    -1.75101,
                    0.0,
                    -0.54651
                ],
                [
                    -9e-05,
                    -4.93309,
                    -0.00077
                ],
                [
                    -0.52127,
                    0.0,
                    -1.71754
                ]
            ],
            [
                [
                    -2.75375,
                    0.29603,
                    0.26115
                ],
                [
                    0.29037,
                    -2.01625,
                    -0.29021
                ],
                [
                    0.57488,
                    -0.225,
                    -3.12975
                ]
            ],
            [
                [
                    -2.75375,
                    -0.29603,
                    0.26115
                ],
                [
                    -0.29024,
                    -2.01622,
                    0.28998
                ],
                [
                    0.57488,
                    0.225,
                    -3.12975
                ]
            ],
            [
                [
                    -3.478,
                    0.28178,
                    1.56256
                ],
                [
                    0.46634,
                    -1.66557,
                    0.34983
                ],
                [
                    1.41217,
                    0.35109,
                    -3.2792
                ]
            ],
            [
                [
                    -3.478,
                    -0.28178,
                    1.56256
                ],
                [
                    -0.46616,
                    -1.66565,
                    -0.34956
                ],
                [
                    1.41217,
                    -0.35109,
                    -3.2792
                ]
            ],
            [
                [
                    -1.39494,
                    0.0,
                    0.20806
                ],
                [
                    8e-05,
                    -6.7101,
                    -8e-05
                ],
                [
                    -0.13285,
                    0.0,
                    -1.36902
                ]
            ]
        ]
    },
    "band_gap": 3.6270000000000007,
    "is_direct": false,
    "formula": "YTa3O9"
}