{
    "mp_id": "mp-7467",
    "nelements": 3,
    "nsites": 8,
    "elements": [
        "Cu",
        "O",
        "Rb"
    ],
    "structure": {
        "@module": "pymatgen.core.structure",
        "@class": "Structure",
        "charge": null,
        "lattice": {
            "matrix": [
                [
                    2.41627539,
                    -5.86320843,
                    0.0
                ],
                [
                    2.41627539,
                    5.86320843,
                    0.0
                ],
                [
                    0.0,
                    0.0,
                    5.38098552
                ]
            ],
            "a": 6.341577079397736,
            "b": 6.341577079397736,
            "c": 5.38098552,
            "alpha": 90.0,
            "beta": 90.0,
            "gamma": 135.20609343758588,
            "volume": 152.46620227023695
        },
        "sites": [
            {
                "species": [
                    {
                        "element": "Rb",
                        "occu": 1
                    }
                ],
                "abc": [
                    0.69082443,
                    0.30917557,
                    0.25
                ],
                "xyz": [
                    2.41627539,
                    -2.2376868132518903,
                    1.34524638
                ],
                "label": "Rb",
                "properties": {}
            },
            {
                "species": [
                    {
                        "element": "Rb",
                        "occu": 1
                    }
                ],
                "abc": [
                    0.30917557,
                    0.69082443,
                    0.75
                ],
                "xyz": [
                    2.41627539,
                    2.2376868132518903,
                    4.0357391400000004
                ],
                "label": "Rb",
                "properties": {}
            },
            {
                "species": [
                    {
                        "element": "Cu",
                        "occu": 1
                    }
                ],
                "abc": [
                    0.00210355,
                    0.99789645,
                    0.75
                ],
                "xyz": [
                    2.41627539,
                    5.838541325814147,
                    4.0357391400000004
                ],
                "label": "Cu",
                "properties": {}
            },
            {
                "species": [
                    {
                        "element": "Cu",
                        "occu": 1
                    }
                ],
                "abc": [
                    0.99789645,
                    0.00210355,
                    0.25
                ],
                "xyz": [
                    2.41627539,
                    -5.838541325814147,
                    1.34524638
                ],
                "label": "Cu",
                "properties": {}
            },
            {
                "species": [
                    {
                        "element": "O",
                        "occu": 1
                    }
                ],
                "abc": [
                    0.10316686,
                    0.89683314,
                    0.49591576
                ],
                "xyz": [
                    2.41627539,
                    4.653430823502741,
                    2.6685155236997953
                ],
                "label": "O",
                "properties": {}
            },
            {
                "species": [
                    {
                        "element": "O",
                        "occu": 1
                    }
                ],
                "abc": [
                    0.89683314,
                    0.10316686,
                    0.50408424
                ],
                "xyz": [
                    2.41627539,
                    -4.653430823502741,
                    2.7124699963002046
                ],
                "label": "O",
                "properties": {}
            },
            {
                "species": [
                    {
                        "element": "O",
                        "occu": 1
                    }
                ],
                "abc": [
                    0.10316686,
                    0.89683314,
                    0.00408424
                ],
                "xyz": [
                    2.41627539,
                    4.653430823502741,
                    0.021977236300204803
                ],
                "label": "O",
                "properties": {}
            },
            {
                "species": [
                    {
                        "element": "O",
                        "occu": 1
                    }
                ],
                "abc": [
                    0.89683314,
                    0.10316686,
                    0.99591576
                ],
                "xyz": [
                    2.41627539,
                    -4.653430823502741,
                    5.359008283699795
                ],
                "label": "O",
                "properties": {}
            }
        ]
    },
    "spacegroup": {
        "source": "spglib",
        "symbol": "Cmcm",
        "number": 63,
        "point_group": "mmm",
        "crystal_system": "orthorhombic",
        "hall": "-C 2c 2"
    },
    "dielectric": {
        "epsilon_ionic": [
            [
                2.15416719,
                -0.0,
                0.0
            ],
            [
                -0.0,
                1.92241034,
                2e-08
            ],
            [
                0.0,
                2e-08,
                3.98611208
            ]
        ],
        "epsilon_ionic_avg": 2.687563203333333,
        "epsilon_ionic_eig": [
            3.98611208,
            1.9224103399999999,
            2.15416719
        ],
        "epsilon_electronic": [
            [
                2.3491722,
                0.0,
                0.0
            ],
            [
                0.0,
                3.08460223,
                0.0
            ],
            [
                0.0,
                0.0,
                6.10832811
            ]
        ],
        "epsilon_electronic_avg": 3.8473675133333334,
        "epsilon_electronic_eig": [
            2.3491722,
            3.08460223,
            6.10832811
        ]
    },
    "phonon": {
        "lowest_freq": -0.08011786175672926,
        "frequency": [
            -0.08011786175672926,
            -0.016043074731581335,
            -0.011553809003653182,
            2.1176956060864516,
            2.1356558192265553,
            2.492315929667286,
            2.825513618109962,
            3.192392845294361,
            3.6847533429587807,
            3.8766323449966538,
            3.87913028469167,
            5.68184989682201,
            6.612893694130572,
            7.802111827094597,
            9.77735852229969,
            10.37167196888289,
            13.961528669575083,
            15.146481342001973,
            17.93815932809097,
            18.10822234788369,
            18.21128604018033,
            18.66910577678374,
            18.682911184877742,
            20.116974137840895
        ]
    },
    "born_effective_charge": {
        "avg_abs_trace": 1.4810616666666667,
        "tensors": [
            [
                [
                    1.25839,
                    1e-05,
                    0.0
                ],
                [
                    0.0,
                    1.43514,
                    0.0
                ],
                [
                    0.0,
                    -0.00037,
                    1.01379
                ]
            ],
            [
                [
                    1.25839,
                    -1e-05,
                    0.0
                ],
                [
                    0.0,
                    1.43529,
                    0.0
                ],
                [
                    -0.0,
                    0.00037,
                    1.01379
                ]
            ],
            [
                [
                    0.21983,
                    -0.0,
                    0.0
                ],
                [
                    0.0,
                    0.73222,
                    0.0
                ],
                [
                    0.0,
                    0.00012,
                    4.22697
                ]
            ],
            [
                [
                    0.21983,
                    0.0,
                    0.0
                ],
                [
                    0.0,
                    0.73213,
                    0.0
                ],
                [
                    0.0,
                    -0.00012,
                    4.22697
                ]
            ],
            [
                [
                    -0.73911,
                    -5e-05,
                    -0.00011
                ],
                [
                    0.0,
                    -1.08362,
                    0.00441
                ],
                [
                    -0.0,
                    0.03811,
                    -2.62048
                ]
            ],
            [
                [
                    -0.73911,
                    5e-05,
                    0.00011
                ],
                [
                    0.0,
                    -1.08377,
                    0.00436
                ],
                [
                    -0.0,
                    0.03865,
                    -2.62028
                ]
            ],
            [
                [
                    -0.73911,
                    -5e-05,
                    0.00011
                ],
                [
                    0.0,
                    -1.08362,
                    -0.00441
                ],
                [
                    0.0,
                    -0.03865,
                    -2.62028
                ]
            ],
            [
                [
                    -0.73911,
                    5e-05,
                    -0.00011
                ],
                [
                    0.0,
                    -1.08377,
                    -0.00436
                ],
                [
                    0.0,
                    -0.03811,
                    -2.62048
                ]
            ]
        ]
    },
    "band_gap": 1.3834,
    "is_direct": false,
    "formula": "RbCuO2"
}