{
    "mp_id": "mp-769971",
    "nelements": 3,
    "nsites": 24,
    "elements": [
        "Ba",
        "Ga",
        "O"
    ],
    "structure": {
        "@module": "pymatgen.core.structure",
        "@class": "Structure",
        "charge": null,
        "lattice": {
            "matrix": [
                [
                    6.84536967,
                    -4.70127547,
                    -0.00090352
                ],
                [
                    6.84536967,
                    4.70127547,
                    -0.00090352
                ],
                [
                    -1.46637268,
                    0.0,
                    5.6017507
                ]
            ],
            "a": 8.304280690109652,
            "b": 8.304280690109652,
            "c": 5.79049736565011,
            "alpha": 102.05518825613572,
            "beta": 102.05518825613572,
            "gamma": 68.96114348385612,
            "volume": 360.5382718743188
        },
        "sites": [
            {
                "species": [
                    {
                        "element": "Ba",
                        "occu": 1
                    }
                ],
                "abc": [
                    0.31064985,
                    0.68935015,
                    0.75
                ],
                "xyz": [
                    5.74559016,
                    1.7803744308716407,
                    4.2004095050000005
                ],
                "label": "Ba",
                "properties": {}
            },
            {
                "species": [
                    {
                        "element": "Ba",
                        "occu": 1
                    }
                ],
                "abc": [
                    0.68935015,
                    0.31064985,
                    0.25
                ],
                "xyz": [
                    6.4787765,
                    -1.7803744308716407,
                    1.399534155
                ],
                "label": "Ba",
                "properties": {}
            },
            {
                "species": [
                    {
                        "element": "Ga",
                        "occu": 1
                    }
                ],
                "abc": [
                    0.05683668,
                    0.18429284,
                    0.77720513
                ],
                "xyz": [
                    0.5109483333618099,
                    0.5992065185083952,
                    4.353491515677181
                ],
                "label": "Ga",
                "properties": {}
            },
            {
                "species": [
                    {
                        "element": "Ga",
                        "occu": 1
                    }
                ],
                "abc": [
                    0.18429284,
                    0.05683668,
                    0.27720513
                ],
                "xyz": [
                    1.24413467336181,
                    -0.5992065185083952,
                    1.5526161656771806
                ],
                "label": "Ga",
                "properties": {}
            },
            {
                "species": [
                    {
                        "element": "Ga",
                        "occu": 1
                    }
                ],
                "abc": [
                    0.41364292,
                    0.23891571,
                    0.70519725
                ],
                "xyz": [
                    3.4329230722876223,
                    -0.8214407463145386,
                    3.9497495890521974
                ],
                "label": "Ga",
                "properties": {}
            },
            {
                "species": [
                    {
                        "element": "Ga",
                        "occu": 1
                    }
                ],
                "abc": [
                    0.23891571,
                    0.41364292,
                    0.20519725
                ],
                "xyz": [
                    4.166109412287622,
                    0.8214407463145386,
                    1.1488742390521975
                ],
                "label": "Ga",
                "properties": {}
            },
            {
                "species": [
                    {
                        "element": "Ga",
                        "occu": 1
                    }
                ],
                "abc": [
                    0.76108429,
                    0.58635708,
                    0.79480275
                ],
                "xyz": [
                    8.058257247712378,
                    -0.821440746314539,
                    4.451069420947802
                ],
                "label": "Ga",
                "properties": {}
            },
            {
                "species": [
                    {
                        "element": "Ga",
                        "occu": 1
                    }
                ],
                "abc": [
                    0.58635708,
                    0.76108429,
                    0.29480275
                ],
                "xyz": [
                    8.791443587712378,
                    0.821440746314539,
                    1.6501940709478027
                ],
                "label": "Ga",
                "properties": {}
            },
            {
                "species": [
                    {
                        "element": "Ga",
                        "occu": 1
                    }
                ],
                "abc": [
                    0.81570716,
                    0.94316332,
                    0.72279487
                ],
                "xyz": [
                    10.98023198663819,
                    0.5992065185083955,
                    4.047327494322819
                ],
                "label": "Ga",
                "properties": {}
            },
            {
                "species": [
                    {
                        "element": "Ga",
                        "occu": 1
                    }
                ],
                "abc": [
                    0.94316332,
                    0.81570716,
                    0.22279487
                ],
                "xyz": [
                    11.71341832663819,
                    -0.5992065185083955,
                    1.2464521443228194
                ],
                "label": "Ga",
                "properties": {}
            },
            {
                "species": [
                    {
                        "element": "O",
                        "occu": 1
                    }
                ],
                "abc": [
                    0.24671325,
                    0.12490497,
                    0.60714305
                ],
                "xyz": [
                    1.6535661106355135,
                    -0.5726542788068915,
                    3.4007282408435007
                ],
                "label": "O",
                "properties": {}
            },
            {
                "species": [
                    {
                        "element": "O",
                        "occu": 1
                    }
                ],
                "abc": [
                    0.12490497,
                    0.24671325,
                    0.10714305
                ],
                "xyz": [
                    2.386752450635514,
                    0.5726542788068915,
                    0.5998528908435006
                ],
                "label": "O",
                "properties": {}
            },
            {
                "species": [
                    {
                        "element": "O",
                        "occu": 1
                    }
                ],
                "abc": [
                    0.34171523,
                    0.41549934,
                    0.95453899
                ],
                "xyz": [
                    3.7837037542292986,
                    0.3468794264187818,
                    5.346405296901507
                ],
                "label": "O",
                "properties": {}
            },
            {
                "species": [
                    {
                        "element": "O",
                        "occu": 1
                    }
                ],
                "abc": [
                    0.63176955,
                    0.11502424,
                    0.83385226
                ],
                "xyz": [
                    3.8893413865900928,
                    -2.4293620501405457,
                    4.670357738026441
                ],
                "label": "O",
                "properties": {}
            },
            {
                "species": [
                    {
                        "element": "O",
                        "occu": 1
                    }
                ],
                "abc": [
                    0.41549934,
                    0.34171523,
                    0.45453899
                ],
                "xyz": [
                    4.516890094229298,
                    -0.3468794264187818,
                    2.5455299469015067
                ],
                "label": "O",
                "properties": {}
            },
            {
                "species": [
                    {
                        "element": "O",
                        "occu": 1
                    }
                ],
                "abc": [
                    0.11502424,
                    0.63176955,
                    0.33385226
                ],
                "xyz": [
                    4.622527726590093,
                    2.4293620501405457,
                    1.8694823880264413
                ],
                "label": "O",
                "properties": {}
            },
            {
                "species": [
                    {
                        "element": "O",
                        "occu": 1
                    }
                ],
                "abc": [
                    0.02503055,
                    0.97496945,
                    0.75
                ],
                "xyz": [
                    5.74559016,
                    4.465924448568782,
                    4.2004095050000005
                ],
                "label": "O",
                "properties": {}
            },
            {
                "species": [
                    {
                        "element": "O",
                        "occu": 1
                    }
                ],
                "abc": [
                    0.97496945,
                    0.02503055,
                    0.25
                ],
                "xyz": [
                    6.4787765,
                    -4.465924448568782,
                    1.399534155
                ],
                "label": "O",
                "properties": {}
            },
            {
                "species": [
                    {
                        "element": "O",
                        "occu": 1
                    }
                ],
                "abc": [
                    0.88497576,
                    0.36823045,
                    0.66614774
                ],
                "xyz": [
                    7.601838933409908,
                    -2.429362050140546,
                    3.730461271973559
                ],
                "label": "O",
                "properties": {}
            },
            {
                "species": [
                    {
                        "element": "O",
                        "occu": 1
                    }
                ],
                "abc": [
                    0.58450066,
                    0.65828477,
                    0.54546101
                ],
                "xyz": [
                    7.707476565770701,
                    0.34687942641878156,
                    3.054413713098494
                ],
                "label": "O",
                "properties": {}
            },
            {
                "species": [
                    {
                        "element": "O",
                        "occu": 1
                    }
                ],
                "abc": [
                    0.36823045,
                    0.88497576,
                    0.16614774
                ],
                "xyz": [
                    8.335025273409908,
                    2.429362050140546,
                    0.9295859219735588
                ],
                "label": "O",
                "properties": {}
            },
            {
                "species": [
                    {
                        "element": "O",
                        "occu": 1
                    }
                ],
                "abc": [
                    0.65828477,
                    0.58450066,
                    0.04546101
                ],
                "xyz": [
                    8.4406629057707,
                    -0.34687942641878156,
                    0.2535383630984934
                ],
                "label": "O",
                "properties": {}
            },
            {
                "species": [
                    {
                        "element": "O",
                        "occu": 1
                    }
                ],
                "abc": [
                    0.87509503,
                    0.75328675,
                    0.89285695
                ],
                "xyz": [
                    9.837614209364489,
                    -0.5726542788068913,
                    5.0000907691564995
                ],
                "label": "O",
                "properties": {}
            },
            {
                "species": [
                    {
                        "element": "O",
                        "occu": 1
                    }
                ],
                "abc": [
                    0.75328675,
                    0.87509503,
                    0.39285695
                ],
                "xyz": [
                    10.570800549364488,
                    0.5726542788068913,
                    2.1992154191564994
                ],
                "label": "O",
                "properties": {}
            }
        ]
    },
    "spacegroup": {
        "source": "spglib",
        "symbol": "C2/c",
        "number": 15,
        "point_group": "2/m",
        "crystal_system": "monoclinic",
        "hall": "-C 2yc"
    },
    "dielectric": {
        "epsilon_ionic": [
            [
                5.91235252,
                -0.0,
                0.06155915
            ],
            [
                -0.0,
                4.10849982,
                0.0
            ],
            [
                0.06155915,
                0.0,
                9.1489357
            ]
        ],
        "epsilon_ionic_avg": 6.3899293466666665,
        "epsilon_ionic_eig": [
            5.911182100808846,
            9.150106119191154,
            4.10849982
        ],
        "epsilon_electronic": [
            [
                3.31824584,
                0.0,
                0.06096604
            ],
            [
                0.0,
                3.37814966,
                0.0
            ],
            [
                0.06096356,
                0.0,
                3.45176124
            ]
        ],
        "epsilon_electronic_avg": 3.3827189133333335,
        "epsilon_electronic_eig": [
            3.2945972495839433,
            3.4754098304160568,
            3.37814966
        ]
    },
    "phonon": {
        "lowest_freq": -0.07915477607715816,
        "frequency": [
            -0.07915477607715816,
            -0.045779970466111854,
            -0.036134538525058636,
            1.9689326873933952,
            2.2454596776255515,
            2.3565466808247737,
            2.35720720225875,
            2.549240056031726,
            3.026268035413205,
            3.0465776069364487,
            3.1972472877658764,
            3.2586959456217652,
            3.3524250557385185,
            3.494355061543898,
            3.7627337253839017,
            3.870589553685606,
            3.957973786629069,
            4.183877491764107,
            4.2229486304663935,
            4.477314277586251,
            5.118728067388661,
            5.2491929302363465,
            5.429911950283621,
            5.437109381711191,
            5.497677874415485,
            5.567368923208331,
            5.571891371858874,
            6.4251109691679105,
            6.436784467143478,
            7.03508683829578,
            7.047067329314009,
            7.363384982455071,
            7.582058958968124,
            7.685242760901429,
            7.774397262190171,
            8.001259814558155,
            8.184284173941561,
            8.355725856433128,
            8.35863683659177,
            8.68500066277236,
            8.83699631370841,
            9.350064204155702,
            10.348383907501521,
            10.841865245102305,
            12.27125795003085,
            12.72776912634104,
            13.142311886676481,
            13.226124783892171,
            13.32473591709035,
            13.364665174049756,
            13.674661461017088,
            13.883703733213999,
            14.383755399251168,
            15.497558760308968,
            16.50480970228058,
            16.552834940462866,
            17.87857662467606,
            18.197961292419173,
            18.50480530144544,
            18.548136280277948,
            18.588219400152557,
            19.220248940792334,
            19.752940929741236,
            19.832079916499627,
            21.529661452044557,
            21.699518525260995,
            22.04342819567026,
            22.756731279989904,
            23.60785390529716,
            23.694160626727406,
            23.93254283652889,
            24.252025388826727
        ]
    },
    "born_effective_charge": {
        "avg_abs_trace": 2.26245375,
        "tensors": [
            [
                [
                    2.40191,
                    2e-05,
                    0.13486
                ],
                [
                    -0.0,
                    2.69817,
                    -0.0
                ],
                [
                    0.18855,
                    0.0,
                    2.76092
                ]
            ],
            [
                [
                    2.40191,
                    -2e-05,
                    0.13486
                ],
                [
                    -0.0,
                    2.69815,
                    -0.0
                ],
                [
                    0.18855,
                    -0.0,
                    2.76092
                ]
            ],
            [
                [
                    2.7424,
                    0.11572,
                    -0.01013
                ],
                [
                    0.01117,
                    2.71555,
                    -0.18174
                ],
                [
                    -0.0498,
                    0.19942,
                    2.83276
                ]
            ],
            [
                [
                    2.7424,
                    -0.11572,
                    -0.01013
                ],
                [
                    -0.01114,
                    2.71556,
                    0.18178
                ],
                [
                    -0.0498,
                    -0.19942,
                    2.83276
                ]
            ],
            [
                [
                    2.64416,
                    -0.24763,
                    0.08687
                ],
                [
                    -0.11968,
                    2.69022,
                    -0.31361
                ],
                [
                    0.10298,
                    0.0064,
                    2.80638
                ]
            ],
            [
                [
                    2.64416,
                    0.24763,
                    0.08687
                ],
                [
                    0.11971,
                    2.69021,
                    0.31362
                ],
                [
                    0.10298,
                    -0.0064,
                    2.80638
                ]
            ],
            [
                [
                    2.64427,
                    0.24742,
                    0.08686
                ],
                [
                    0.11968,
                    2.69022,
                    0.31361
                ],
                [
                    0.10291,
                    -0.00629,
                    2.80632
                ]
            ],
            [
                [
                    2.64427,
                    -0.24742,
                    0.08686
                ],
                [
                    -0.11971,
                    2.69021,
                    -0.31362
                ],
                [
                    0.10291,
                    0.00629,
                    2.80632
                ]
            ],
            [
                [
                    2.74259,
                    -0.11579,
                    -0.01011
                ],
                [
                    -0.01117,
                    2.71555,
                    0.18174
                ],
                [
                    -0.04988,
                    -0.19951,
                    2.83276
                ]
            ],
            [
                [
                    2.74259,
                    0.11579,
                    -0.01011
                ],
                [
                    0.01114,
                    2.71556,
                    -0.18178
                ],
                [
                    -0.04988,
                    0.19951,
                    2.83276
                ]
            ],
            [
                [
                    -2.29419,
                    0.42455,
                    -0.15611
                ],
                [
                    0.36067,
                    -1.42528,
                    -0.31781
                ],
                [
                    -0.12848,
                    -0.23694,
                    -2.19028
                ]
            ],
            [
                [
                    -2.29419,
                    -0.42455,
                    -0.15611
                ],
                [
                    -0.36066,
                    -1.42521,
                    0.3178
                ],
                [
                    -0.12848,
                    0.23694,
                    -2.19028
                ]
            ],
            [
                [
                    -1.7913,
                    -0.02061,
                    0.33615
                ],
                [
                    -0.03595,
                    -1.74074,
                    -0.31896
                ],
                [
                    0.30052,
                    -0.35342,
                    -2.33741
                ]
            ],
            [
                [
                    -1.28018,
                    0.24757,
                    -0.24115
                ],
                [
                    0.27617,
                    -2.67314,
                    -0.03459
                ],
                [
                    -0.25125,
                    -0.0416,
                    -1.75007
                ]
            ],
            [
                [
                    -1.7913,
                    0.02061,
                    0.33615
                ],
                [
                    0.03596,
                    -1.74073,
                    0.31897
                ],
                [
                    0.30052,
                    0.35342,
                    -2.33741
                ]
            ],
            [
                [
                    -1.28018,
                    -0.24757,
                    -0.24115
                ],
                [
                    -0.27619,
                    -2.67316,
                    0.0345
                ],
                [
                    -0.25125,
                    0.0416,
                    -1.75007
                ]
            ],
            [
                [
                    -2.44373,
                    0.00016,
                    -0.16604
                ],
                [
                    -0.0,
                    -1.83142,
                    -0.0
                ],
                [
                    -0.13644,
                    0.00025,
                    -1.48342
                ]
            ],
            [
                [
                    -2.44373,
                    -0.00016,
                    -0.16604
                ],
                [
                    -0.0,
                    -1.83147,
                    -0.0
                ],
                [
                    -0.13644,
                    -0.00025,
                    -1.48342
                ]
            ],
            [
                [
                    -1.28028,
                    -0.24754,
                    -0.24122
                ],
                [
                    -0.27617,
                    -2.67314,
                    0.03459
                ],
                [
                    -0.25115,
                    0.04154,
                    -1.75019
                ]
            ],
            [
                [
                    -1.79142,
                    0.02088,
                    0.33612
                ],
                [
                    0.03595,
                    -1.74074,
                    0.31896
                ],
                [
                    0.30045,
                    0.35306,
                    -2.33739
                ]
            ],
            [
                [
                    -1.28028,
                    0.24754,
                    -0.24122
                ],
                [
                    0.27619,
                    -2.67316,
                    -0.0345
                ],
                [
                    -0.25115,
                    -0.04154,
                    -1.75019
                ]
            ],
            [
                [
                    -1.79142,
                    -0.02088,
                    0.33612
                ],
                [
                    -0.03596,
                    -1.74073,
                    -0.31897
                ],
                [
                    0.30045,
                    -0.35306,
                    -2.33739
                ]
            ],
            [
                [
                    -2.29423,
                    -0.42461,
                    -0.15609
                ],
                [
                    -0.36067,
                    -1.42528,
                    0.31781
                ],
                [
                    -0.1284,
                    0.23711,
                    -2.19037
                ]
            ],
            [
                [
                    -2.29423,
                    0.42461,
                    -0.15609
                ],
                [
                    0.36066,
                    -1.42521,
                    -0.3178
                ],
                [
                    -0.1284,
                    -0.23711,
                    -2.19037
                ]
            ]
        ]
    },
    "band_gap": 2.4271000000000003,
    "is_direct": true,
    "formula": "BaGa4O7"
}