{
    "mp_id": "mp-7232",
    "nelements": 3,
    "nsites": 5,
    "elements": [
        "Cs",
        "Hg",
        "O"
    ],
    "structure": {
        "@module": "pymatgen.core.structure",
        "@class": "Structure",
        "charge": null,
        "lattice": {
            "matrix": [
                [
                    -2.19339921,
                    2.19339921,
                    7.2112267
                ],
                [
                    2.19339921,
                    -2.19339921,
                    7.2112267
                ],
                [
                    2.19339921,
                    2.19339921,
                    -7.2112267
                ]
            ],
            "a": 7.850082210247874,
            "b": 7.850082210247874,
            "c": 7.850082210247874,
            "alpha": 147.54989267347761,
            "beta": 147.54989267347761,
            "gamma": 46.55026055025357,
            "volume": 138.77284933858485
        },
        "sites": [
            {
                "species": [
                    {
                        "element": "Cs",
                        "occu": 1
                    }
                ],
                "abc": [
                    0.66471852,
                    0.66471852,
                    0.0
                ],
                "xyz": [
                    0.0,
                    0.0,
                    9.586871878816968
                ],
                "label": "Cs",
                "properties": {}
            },
            {
                "species": [
                    {
                        "element": "Cs",
                        "occu": 1
                    }
                ],
                "abc": [
                    0.33528148,
                    0.33528148,
                    0.0
                ],
                "xyz": [
                    0.0,
                    0.0,
                    4.835581521183032
                ],
                "label": "Cs",
                "properties": {}
            },
            {
                "species": [
                    {
                        "element": "Hg",
                        "occu": 1
                    }
                ],
                "abc": [
                    0.0,
                    0.0,
                    0.0
                ],
                "xyz": [
                    0.0,
                    0.0,
                    0.0
                ],
                "label": "Hg",
                "properties": {}
            },
            {
                "species": [
                    {
                        "element": "O",
                        "occu": 1
                    }
                ],
                "abc": [
                    0.86281011,
                    0.86281011,
                    0.0
                ],
                "xyz": [
                    0.0,
                    0.0,
                    12.443838604523874
                ],
                "label": "O",
                "properties": {}
            },
            {
                "species": [
                    {
                        "element": "O",
                        "occu": 1
                    }
                ],
                "abc": [
                    0.13718989,
                    0.13718989,
                    0.0
                ],
                "xyz": [
                    0.0,
                    0.0,
                    1.9786147954761262
                ],
                "label": "O",
                "properties": {}
            }
        ]
    },
    "spacegroup": {
        "source": "spglib",
        "symbol": "I4/mmm",
        "number": 139,
        "point_group": "4/mmm",
        "crystal_system": "tetragonal",
        "hall": "-I 4 2"
    },
    "dielectric": {
        "epsilon_ionic": [
            [
                6.1206847,
                0.0,
                0.0
            ],
            [
                0.0,
                6.12222843,
                0.0
            ],
            [
                0.0,
                0.0,
                3.83858928
            ]
        ],
        "epsilon_ionic_avg": 5.360500803333333,
        "epsilon_ionic_eig": [
            6.1206847,
            6.12222843,
            3.83858928
        ],
        "epsilon_electronic": [
            [
                3.03473503,
                0.0,
                0.0
            ],
            [
                0.0,
                3.03473503,
                0.0
            ],
            [
                0.0,
                0.0,
                4.00035754
            ]
        ],
        "epsilon_electronic_avg": 3.3566092,
        "epsilon_electronic_eig": [
            3.03473503,
            3.03473503,
            4.00035754
        ]
    },
    "phonon": {
        "lowest_freq": -0.00782924049017025,
        "frequency": [
            -0.00782924049017025,
            -0.00782924049017025,
            -0.002791213073128957,
            1.4090529330003796,
            1.4090529330003796,
            1.7288002601469656,
            1.7288002601469656,
            2.3191346613945383,
            2.5962972208207344,
            2.8934257965143164,
            2.8934257965143164,
            5.783702987290032,
            5.783702987290032,
            18.137905605304823,
            18.249764210851836
        ]
    },
    "born_effective_charge": {
        "avg_abs_trace": 1.438386,
        "tensors": [
            [
                [
                    1.35424,
                    0.0,
                    6e-05
                ],
                [
                    0.0,
                    1.35442,
                    4e-05
                ],
                [
                    0.0,
                    0.0,
                    1.40206
                ]
            ],
            [
                [
                    1.35424,
                    0.0,
                    -6e-05
                ],
                [
                    0.0,
                    1.35442,
                    -4e-05
                ],
                [
                    0.0,
                    0.0,
                    1.40198
                ]
            ],
            [
                [
                    -0.04167,
                    0.0,
                    0.0
                ],
                [
                    -0.0,
                    -0.04177,
                    0.0
                ],
                [
                    0.0,
                    0.0,
                    2.64996
                ]
            ],
            [
                [
                    -1.33341,
                    -0.0,
                    0.0001
                ],
                [
                    0.0,
                    -1.33354,
                    3e-05
                ],
                [
                    -0.0,
                    -0.0,
                    -2.72702
                ]
            ],
            [
                [
                    -1.33341,
                    -0.0,
                    -0.0001
                ],
                [
                    -0.0,
                    -1.33354,
                    -3e-05
                ],
                [
                    -0.0,
                    -0.0,
                    -2.72699
                ]
            ]
        ]
    },
    "band_gap": 2.1387,
    "is_direct": false,
    "formula": "Cs2HgO2"
}