{
    "mp_id": "mp-770815",
    "nelements": 3,
    "nsites": 28,
    "elements": [
        "Cs",
        "O",
        "Y"
    ],
    "structure": {
        "@module": "pymatgen.core.structure",
        "@class": "Structure",
        "charge": null,
        "lattice": {
            "matrix": [
                [
                    8.02272957,
                    0.0,
                    -0.00432357
                ],
                [
                    0.0,
                    7.5039985,
                    0.0
                ],
                [
                    -1.01405539,
                    0.0,
                    12.08827788
                ]
            ],
            "a": 8.022730735018465,
            "b": 7.5039985,
            "c": 12.130736599155279,
            "alpha": 90.0,
            "beta": 94.82605013711354,
            "gamma": 90.0,
            "volume": 727.7122613762629
        },
        "sites": [
            {
                "species": [
                    {
                        "element": "Cs",
                        "occu": 1
                    }
                ],
                "abc": [
                    0.65058388,
                    0.65460963,
                    0.07563432
                ],
                "xyz": [
                    5.142761141976346,
                    4.912189681605556,
                    0.91147583247879
                ],
                "label": "Cs",
                "properties": {}
            },
            {
                "species": [
                    {
                        "element": "Cs",
                        "occu": 1
                    }
                ],
                "abc": [
                    0.05970895,
                    0.37327555,
                    0.15971724
                ],
                "xyz": [
                    0.3170666306607278,
                    2.801059167286675,
                    1.9304482235216998
                ],
                "label": "Cs",
                "properties": {}
            },
            {
                "species": [
                    {
                        "element": "Cs",
                        "occu": 1
                    }
                ],
                "abc": [
                    0.61630627,
                    0.17715724,
                    0.19049756
                ],
                "xyz": [
                    4.751283459005555,
                    1.32938766322414,
                    2.300122797442189
                ],
                "label": "Cs",
                "properties": {}
            },
            {
                "species": [
                    {
                        "element": "Cs",
                        "occu": 1
                    }
                ],
                "abc": [
                    0.38369373,
                    0.67715724,
                    0.30950244
                ],
                "xyz": [
                    2.7644184159944443,
                    5.08138691322414,
                    3.7396925725578107
                ],
                "label": "Cs",
                "properties": {}
            },
            {
                "species": [
                    {
                        "element": "Cs",
                        "occu": 1
                    }
                ],
                "abc": [
                    0.94029105,
                    0.87327555,
                    0.34028276
                ],
                "xyz": [
                    7.198635244339272,
                    6.553058417286675,
                    4.1093671464783
                ],
                "label": "Cs",
                "properties": {}
            },
            {
                "species": [
                    {
                        "element": "Cs",
                        "occu": 1
                    }
                ],
                "abc": [
                    0.34941612,
                    0.15460963,
                    0.42436568
                ],
                "xyz": [
                    2.372940733023653,
                    1.160190431605555,
                    5.12833953752121
                ],
                "label": "Cs",
                "properties": {}
            },
            {
                "species": [
                    {
                        "element": "Cs",
                        "occu": 1
                    }
                ],
                "abc": [
                    0.65058388,
                    0.84539037,
                    0.57563432
                ],
                "xyz": [
                    4.635733446976347,
                    6.343808068394444,
                    6.95561477247879
                ],
                "label": "Cs",
                "properties": {}
            },
            {
                "species": [
                    {
                        "element": "Cs",
                        "occu": 1
                    }
                ],
                "abc": [
                    0.05970895,
                    0.12672445,
                    0.65971724
                ],
                "xyz": [
                    -0.18996106433927212,
                    0.9509400827133249,
                    7.974587163521699
                ],
                "label": "Cs",
                "properties": {}
            },
            {
                "species": [
                    {
                        "element": "Cs",
                        "occu": 1
                    }
                ],
                "abc": [
                    0.61630627,
                    0.32284276,
                    0.69049756
                ],
                "xyz": [
                    4.244255764005556,
                    2.42261158677586,
                    8.344261737442189
                ],
                "label": "Cs",
                "properties": {}
            },
            {
                "species": [
                    {
                        "element": "Cs",
                        "occu": 1
                    }
                ],
                "abc": [
                    0.38369373,
                    0.82284276,
                    0.80950244
                ],
                "xyz": [
                    2.257390720994444,
                    6.17461083677586,
                    9.78383151255781
                ],
                "label": "Cs",
                "properties": {}
            },
            {
                "species": [
                    {
                        "element": "Cs",
                        "occu": 1
                    }
                ],
                "abc": [
                    0.94029105,
                    0.62672445,
                    0.84028276
                ],
                "xyz": [
                    6.691607549339272,
                    4.702939332713325,
                    10.1535060864783
                ],
                "label": "Cs",
                "properties": {}
            },
            {
                "species": [
                    {
                        "element": "Cs",
                        "occu": 1
                    }
                ],
                "abc": [
                    0.34941612,
                    0.34539037,
                    0.92436568
                ],
                "xyz": [
                    1.865913038023653,
                    2.591808818394445,
                    11.172478477521208
                ],
                "label": "Cs",
                "properties": {}
            },
            {
                "species": [
                    {
                        "element": "Y",
                        "occu": 1
                    }
                ],
                "abc": [
                    0.15462818,
                    0.90732684,
                    0.07199596
                ],
                "xyz": [
                    1.167532180745058,
                    6.80857924636974,
                    0.8696386249571622
                ],
                "label": "Y",
                "properties": {}
            },
            {
                "species": [
                    {
                        "element": "Y",
                        "occu": 1
                    }
                ],
                "abc": [
                    0.84537182,
                    0.40732684,
                    0.42800404
                ],
                "xyz": [
                    6.348169694254941,
                    3.05657999636974,
                    5.170176745042838
                ],
                "label": "Y",
                "properties": {}
            },
            {
                "species": [
                    {
                        "element": "Y",
                        "occu": 1
                    }
                ],
                "abc": [
                    0.15462818,
                    0.59267316,
                    0.57199596
                ],
                "xyz": [
                    0.6605044857450582,
                    4.44741850363026,
                    6.913777564957162
                ],
                "label": "Y",
                "properties": {}
            },
            {
                "species": [
                    {
                        "element": "Y",
                        "occu": 1
                    }
                ],
                "abc": [
                    0.84537182,
                    0.09267316,
                    0.92800404
                ],
                "xyz": [
                    5.841141999254941,
                    0.69541925363026,
                    11.214315685042838
                ],
                "label": "Y",
                "properties": {}
            },
            {
                "species": [
                    {
                        "element": "O",
                        "occu": 1
                    }
                ],
                "abc": [
                    0.24594315,
                    0.64565509,
                    0.05604544
                ],
                "xyz": [
                    1.9163022015270237,
                    4.844994826877365,
                    0.6764295002018217
                ],
                "label": "O",
                "properties": {}
            },
            {
                "species": [
                    {
                        "element": "O",
                        "occu": 1
                    }
                ],
                "abc": [
                    0.88617787,
                    0.9492308,
                    0.08453872
                ],
                "xyz": [
                    7.023838457248915,
                    7.1230264993538,
                    1.0180960869261175
                ],
                "label": "O",
                "properties": {}
            },
            {
                "species": [
                    {
                        "element": "O",
                        "occu": 1
                    }
                ],
                "abc": [
                    0.28995673,
                    0.04352794,
                    0.20115212
                ],
                "xyz": [
                    2.122265040295579,
                    0.32663359646809,
                    2.430329074491979
                ],
                "label": "O",
                "properties": {}
            },
            {
                "species": [
                    {
                        "element": "O",
                        "occu": 1
                    }
                ],
                "abc": [
                    0.71004327,
                    0.54352794,
                    0.29884788
                ],
                "xyz": [
                    5.393436834704421,
                    4.07863284646809,
                    3.6094862955080207
                ],
                "label": "O",
                "properties": {}
            },
            {
                "species": [
                    {
                        "element": "O",
                        "occu": 1
                    }
                ],
                "abc": [
                    0.11382213,
                    0.4492308,
                    0.41546128
                ],
                "xyz": [
                    0.49186341775108483,
                    3.3710272493537996,
                    5.021719283073883
                ],
                "label": "O",
                "properties": {}
            },
            {
                "species": [
                    {
                        "element": "O",
                        "occu": 1
                    }
                ],
                "abc": [
                    0.75405685,
                    0.14565509,
                    0.44395456
                ],
                "xyz": [
                    5.599399673472976,
                    1.092995576877365,
                    5.363385869798178
                ],
                "label": "O",
                "properties": {}
            },
            {
                "species": [
                    {
                        "element": "O",
                        "occu": 1
                    }
                ],
                "abc": [
                    0.24594315,
                    0.85434491,
                    0.55604544
                ],
                "xyz": [
                    1.4092745065270236,
                    6.411002923122635,
                    6.720568440201821
                ],
                "label": "O",
                "properties": {}
            },
            {
                "species": [
                    {
                        "element": "O",
                        "occu": 1
                    }
                ],
                "abc": [
                    0.88617787,
                    0.5507692,
                    0.58453872
                ],
                "xyz": [
                    6.516810762248915,
                    4.132971250646199,
                    7.062235026926118
                ],
                "label": "O",
                "properties": {}
            },
            {
                "species": [
                    {
                        "element": "O",
                        "occu": 1
                    }
                ],
                "abc": [
                    0.28995673,
                    0.45647206,
                    0.70115212
                ],
                "xyz": [
                    1.6152373452955788,
                    3.42536565353191,
                    8.474468014491979
                ],
                "label": "O",
                "properties": {}
            },
            {
                "species": [
                    {
                        "element": "O",
                        "occu": 1
                    }
                ],
                "abc": [
                    0.71004327,
                    0.95647206,
                    0.79884788
                ],
                "xyz": [
                    4.88640913970442,
                    7.17736490353191,
                    9.65362523550802
                ],
                "label": "O",
                "properties": {}
            },
            {
                "species": [
                    {
                        "element": "O",
                        "occu": 1
                    }
                ],
                "abc": [
                    0.11382213,
                    0.0507692,
                    0.91546128
                ],
                "xyz": [
                    -0.015164277248915226,
                    0.3809720006462,
                    11.065858223073882
                ],
                "label": "O",
                "properties": {}
            },
            {
                "species": [
                    {
                        "element": "O",
                        "occu": 1
                    }
                ],
                "abc": [
                    0.75405685,
                    0.35434491,
                    0.94395456
                ],
                "xyz": [
                    5.0923719784729755,
                    2.659003673122635,
                    11.407524809798177
                ],
                "label": "O",
                "properties": {}
            }
        ]
    },
    "spacegroup": {
        "source": "spglib",
        "symbol": "P2_1/c",
        "number": 14,
        "point_group": "2/m",
        "crystal_system": "monoclinic",
        "hall": "-P 2ybc"
    },
    "dielectric": {
        "epsilon_ionic": [
            [
                7.82748131,
                2e-08,
                1.42591361
            ],
            [
                2e-08,
                7.94779242,
                1e-08
            ],
            [
                1.42591361,
                1e-08,
                9.31688139
            ]
        ],
        "epsilon_ionic_avg": 8.364051706666668,
        "epsilon_ionic_eig": [
            10.18084780789587,
            6.963514892104133,
            7.947792420000002
        ],
        "epsilon_electronic": [
            [
                3.50445128,
                0.0,
                0.0600672
            ],
            [
                0.0,
                3.55471419,
                0.0
            ],
            [
                0.06006167,
                0.0,
                3.62842439
            ]
        ],
        "epsilon_electronic_avg": 3.5625299533333337,
        "epsilon_electronic_eig": [
            3.4801240507880213,
            3.652751619211979,
            3.55471419
        ]
    },
    "phonon": {
        "lowest_freq": -0.08969004142605008,
        "frequency": [
            -0.08969004142605008,
            -0.06725121690914672,
            -0.055537164644102126,
            0.8746542766123507,
            1.0909481126058558,
            1.1200733723943068,
            1.1272143389188538,
            1.1428714686617654,
            1.193804359552791,
            1.2121400296291436,
            1.3038092720787817,
            1.3149079348408979,
            1.3312626058352912,
            1.3850255180725803,
            1.5180594991868397,
            1.5426010415368843,
            1.5534571725556847,
            1.6618636076162803,
            1.7127118284844243,
            1.7209922903138688,
            1.76520452617896,
            1.7811413820790145,
            1.820044521820837,
            1.9340570033506261,
            1.9402507298474023,
            1.9899726833495082,
            2.032296507968402,
            2.1386135205956074,
            2.1563421760332324,
            2.215350541268369,
            2.2830503530279893,
            2.360017851015136,
            2.470116298378249,
            2.4724979788392076,
            2.4971611386198433,
            2.6235877748465244,
            2.6359407624871705,
            2.801851400249817,
            2.828423697753303,
            2.8805920016841595,
            2.967973470781207,
            2.970140436851512,
            3.0203086968763757,
            3.15790984988713,
            3.2969477263155973,
            3.313599181948415,
            3.7291211076509447,
            3.7770564352061053,
            4.070884443406088,
            4.100869125539881,
            4.414882208837297,
            4.739241795356547,
            4.844677912847641,
            4.888358761258381,
            4.964573175532614,
            5.24386637442146,
            5.373462658128117,
            5.811427556741478,
            5.843515260111641,
            5.965346601396723,
            6.118304943061745,
            6.436090882737625,
            6.769916585474173,
            7.270045820252007,
            7.323678644769481,
            7.568329750705752,
            7.584070190871865,
            7.76315494110603,
            11.06532669347842,
            11.110307595462372,
            12.333561349980307,
            12.379826607952234,
            12.782304554028686,
            12.817765503117242,
            13.03648763048371,
            13.204287996311216,
            14.019567679391924,
            14.143072161288616,
            14.662656772118307,
            14.7503526512822,
            16.335257308237004,
            16.507822447009104,
            16.764406880194688,
            16.834930583370866
        ]
    },
    "born_effective_charge": {
        "avg_abs_trace": 1.9128283333333334,
        "tensors": [
            [
                [
                    1.24416,
                    0.09537,
                    -0.0355
                ],
                [
                    0.07085,
                    1.26902,
                    0.05728
                ],
                [
                    -0.05319,
                    0.04643,
                    1.44115
                ]
            ],
            [
                [
                    1.1325,
                    0.03814,
                    -0.02275
                ],
                [
                    0.07691,
                    1.42014,
                    -0.09245
                ],
                [
                    -0.03805,
                    -0.06748,
                    1.29861
                ]
            ],
            [
                [
                    1.4914,
                    0.15389,
                    -0.0864
                ],
                [
                    0.17167,
                    1.17294,
                    0.05325
                ],
                [
                    -0.03671,
                    0.09105,
                    1.21576
                ]
            ],
            [
                [
                    1.49143,
                    -0.1539,
                    -0.08642
                ],
                [
                    -0.17167,
                    1.17294,
                    -0.05325
                ],
                [
                    -0.03665,
                    -0.09106,
                    1.21575
                ]
            ],
            [
                [
                    1.13254,
                    -0.03816,
                    -0.02273
                ],
                [
                    -0.07691,
                    1.42014,
                    0.09245
                ],
                [
                    -0.03807,
                    0.06748,
                    1.29861
                ]
            ],
            [
                [
                    1.24418,
                    -0.09539,
                    -0.03551
                ],
                [
                    -0.07085,
                    1.26902,
                    -0.05728
                ],
                [
                    -0.05311,
                    -0.04643,
                    1.44117
                ]
            ],
            [
                [
                    1.24416,
                    -0.09537,
                    -0.0355
                ],
                [
                    -0.07078,
                    1.26917,
                    -0.05727
                ],
                [
                    -0.05319,
                    -0.04643,
                    1.44115
                ]
            ],
            [
                [
                    1.1325,
                    -0.03814,
                    -0.02275
                ],
                [
                    -0.0769,
                    1.42009,
                    0.09243
                ],
                [
                    -0.03805,
                    0.06748,
                    1.29861
                ]
            ],
            [
                [
                    1.4914,
                    -0.15389,
                    -0.0864
                ],
                [
                    -0.17162,
                    1.17294,
                    -0.05323
                ],
                [
                    -0.03671,
                    -0.09105,
                    1.21576
                ]
            ],
            [
                [
                    1.49143,
                    0.1539,
                    -0.08642
                ],
                [
                    0.17162,
                    1.17294,
                    0.05323
                ],
                [
                    -0.03665,
                    0.09106,
                    1.21575
                ]
            ],
            [
                [
                    1.13254,
                    0.03816,
                    -0.02273
                ],
                [
                    0.0769,
                    1.42009,
                    -0.09243
                ],
                [
                    -0.03807,
                    -0.06748,
                    1.29861
                ]
            ],
            [
                [
                    1.24418,
                    0.09539,
                    -0.03551
                ],
                [
                    0.07078,
                    1.26917,
                    0.05727
                ],
                [
                    -0.05311,
                    0.04643,
                    1.44117
                ]
            ],
            [
                [
                    2.65125,
                    -0.47308,
                    0.59693
                ],
                [
                    -0.51388,
                    2.88012,
                    0.04114
                ],
                [
                    0.55914,
                    0.0094,
                    2.86752
                ]
            ],
            [
                [
                    2.651,
                    0.4733,
                    0.59658
                ],
                [
                    0.51388,
                    2.88012,
                    -0.04114
                ],
                [
                    0.55936,
                    -0.00926,
                    2.86774
                ]
            ],
            [
                [
                    2.65125,
                    0.47308,
                    0.59693
                ],
                [
                    0.51363,
                    2.88018,
                    -0.04109
                ],
                [
                    0.55914,
                    -0.0094,
                    2.86752
                ]
            ],
            [
                [
                    2.651,
                    -0.4733,
                    0.59658
                ],
                [
                    -0.51363,
                    2.88018,
                    0.04109
                ],
                [
                    0.55936,
                    0.00926,
                    2.86774
                ]
            ],
            [
                [
                    -1.93777,
                    0.38169,
                    0.18188
                ],
                [
                    0.35104,
                    -2.917,
                    -0.10333
                ],
                [
                    0.14834,
                    -0.10063,
                    -1.95874
                ]
            ],
            [
                [
                    -2.3994,
                    0.1811,
                    -0.12105
                ],
                [
                    0.16346,
                    -1.7703,
                    0.44405
                ],
                [
                    -0.07631,
                    0.46384,
                    -2.21926
                ]
            ],
            [
                [
                    -2.18213,
                    -0.36966,
                    -0.51296
                ],
                [
                    -0.36679,
                    -2.05483,
                    -0.34745
                ],
                [
                    -0.50337,
                    -0.41582,
                    -2.64512
                ]
            ],
            [
                [
                    -2.18209,
                    0.36966,
                    -0.51293
                ],
                [
                    0.36679,
                    -2.05483,
                    0.34745
                ],
                [
                    -0.50338,
                    0.41586,
                    -2.6452
                ]
            ],
            [
                [
                    -2.39934,
                    -0.18114,
                    -0.12096
                ],
                [
                    -0.16346,
                    -1.7703,
                    -0.44405
                ],
                [
                    -0.07632,
                    -0.46385,
                    -2.2193
                ]
            ],
            [
                [
                    -1.93775,
                    -0.38172,
                    0.18181
                ],
                [
                    -0.35104,
                    -2.917,
                    0.10333
                ],
                [
                    0.14831,
                    0.10065,
                    -1.95871
                ]
            ],
            [
                [
                    -1.93777,
                    -0.38169,
                    0.18188
                ],
                [
                    -0.35096,
                    -2.91729,
                    0.10337
                ],
                [
                    0.14834,
                    0.10063,
                    -1.95874
                ]
            ],
            [
                [
                    -2.3994,
                    -0.1811,
                    -0.12105
                ],
                [
                    -0.16347,
                    -1.7702,
                    -0.44422
                ],
                [
                    -0.07631,
                    -0.46384,
                    -2.21926
                ]
            ],
            [
                [
                    -2.18213,
                    0.36966,
                    -0.51296
                ],
                [
                    0.36677,
                    -2.05499,
                    0.34753
                ],
                [
                    -0.50337,
                    0.41582,
                    -2.64512
                ]
            ],
            [
                [
                    -2.18209,
                    -0.36966,
                    -0.51293
                ],
                [
                    -0.36677,
                    -2.05499,
                    -0.34753
                ],
                [
                    -0.50338,
                    -0.41586,
                    -2.6452
                ]
            ],
            [
                [
                    -2.39934,
                    0.18114,
                    -0.12096
                ],
                [
                    0.16347,
                    -1.7702,
                    0.44422
                ],
                [
                    -0.07632,
                    0.46385,
                    -2.2193
                ]
            ],
            [
                [
                    -1.93775,
                    0.38172,
                    0.18181
                ],
                [
                    0.35096,
                    -2.91729,
                    -0.10337
                ],
                [
                    0.14831,
                    -0.10065,
                    -1.95871
                ]
            ]
        ]
    },
    "band_gap": 2.4334,
    "is_direct": true,
    "formula": "Cs3YO3"
}