{
    "mp_id": "mp-765493",
    "nelements": 3,
    "nsites": 36,
    "elements": [
        "Ba",
        "O",
        "Sb"
    ],
    "structure": {
        "@module": "pymatgen.core.structure",
        "@class": "Structure",
        "charge": null,
        "lattice": {
            "matrix": [
                [
                    14.41611808,
                    0.0,
                    0.0
                ],
                [
                    0.0,
                    6.3819721,
                    0.0
                ],
                [
                    0.0,
                    0.0,
                    8.04656475
                ]
            ],
            "a": 14.41611808,
            "b": 6.3819721,
            "c": 8.04656475,
            "alpha": 90.0,
            "beta": 90.0,
            "gamma": 90.0,
            "volume": 740.3102159732524
        },
        "sites": [
            {
                "species": [
                    {
                        "element": "Ba",
                        "occu": 1
                    }
                ],
                "abc": [
                    0.07335219,
                    0.25,
                    0.62542395
                ],
                "xyz": [
                    1.0574538324665952,
                    1.595493025,
                    5.032514309875762
                ],
                "label": "Ba",
                "properties": {}
            },
            {
                "species": [
                    {
                        "element": "Ba",
                        "occu": 1
                    }
                ],
                "abc": [
                    0.4312869,
                    0.75,
                    0.62471626
                ],
                "xyz": [
                    6.217482876757152,
                    4.786479075,
                    5.026819836467835
                ],
                "label": "Ba",
                "properties": {}
            },
            {
                "species": [
                    {
                        "element": "Ba",
                        "occu": 1
                    }
                ],
                "abc": [
                    0.9312869,
                    0.75,
                    0.87528374
                ],
                "xyz": [
                    13.425541916757153,
                    4.786479075,
                    7.043027288532165
                ],
                "label": "Ba",
                "properties": {}
            },
            {
                "species": [
                    {
                        "element": "Ba",
                        "occu": 1
                    }
                ],
                "abc": [
                    0.57335219,
                    0.25,
                    0.87457605
                ],
                "xyz": [
                    8.265512872466596,
                    1.595493025,
                    7.037332815124238
                ],
                "label": "Ba",
                "properties": {}
            },
            {
                "species": [
                    {
                        "element": "Ba",
                        "occu": 1
                    }
                ],
                "abc": [
                    0.0687131,
                    0.25,
                    0.12471626
                ],
                "xyz": [
                    0.990576163242848,
                    1.595493025,
                    1.003537461467835
                ],
                "label": "Ba",
                "properties": {}
            },
            {
                "species": [
                    {
                        "element": "Ba",
                        "occu": 1
                    }
                ],
                "abc": [
                    0.42664781,
                    0.75,
                    0.12542395
                ],
                "xyz": [
                    6.150605207533405,
                    4.786479075,
                    1.0092319348757626
                ],
                "label": "Ba",
                "properties": {}
            },
            {
                "species": [
                    {
                        "element": "Ba",
                        "occu": 1
                    }
                ],
                "abc": [
                    0.5687131,
                    0.25,
                    0.37528374
                ],
                "xyz": [
                    8.198635203242848,
                    1.595493025,
                    3.019744913532165
                ],
                "label": "Ba",
                "properties": {}
            },
            {
                "species": [
                    {
                        "element": "Ba",
                        "occu": 1
                    }
                ],
                "abc": [
                    0.92664781,
                    0.75,
                    0.37457605
                ],
                "xyz": [
                    13.358664247533405,
                    4.786479075,
                    3.0140504401242376
                ],
                "label": "Ba",
                "properties": {}
            },
            {
                "species": [
                    {
                        "element": "Sb",
                        "occu": 1
                    }
                ],
                "abc": [
                    0.81803489,
                    0.25,
                    0.63126519
                ],
                "xyz": [
                    11.792887567799811,
                    1.595493025,
                    5.079516225756053
                ],
                "label": "Sb",
                "properties": {}
            },
            {
                "species": [
                    {
                        "element": "Sb",
                        "occu": 1
                    }
                ],
                "abc": [
                    0.68469178,
                    0.75,
                    0.6167803
                ],
                "xyz": [
                    9.870597548885382,
                    4.786479075,
                    4.962962620474425
                ],
                "label": "Sb",
                "properties": {}
            },
            {
                "species": [
                    {
                        "element": "Sb",
                        "occu": 1
                    }
                ],
                "abc": [
                    0.31803489,
                    0.25,
                    0.86873481
                ],
                "xyz": [
                    4.584828527799812,
                    1.595493025,
                    6.990330899243947
                ],
                "label": "Sb",
                "properties": {}
            },
            {
                "species": [
                    {
                        "element": "Sb",
                        "occu": 1
                    }
                ],
                "abc": [
                    0.18469178,
                    0.75,
                    0.8832197
                ],
                "xyz": [
                    2.6625385088853823,
                    4.786479075,
                    7.106884504525575
                ],
                "label": "Sb",
                "properties": {}
            },
            {
                "species": [
                    {
                        "element": "Sb",
                        "occu": 1
                    }
                ],
                "abc": [
                    0.81530822,
                    0.25,
                    0.1167803
                ],
                "xyz": [
                    11.753579571114619,
                    1.595493025,
                    0.939680245474425
                ],
                "label": "Sb",
                "properties": {}
            },
            {
                "species": [
                    {
                        "element": "Sb",
                        "occu": 1
                    }
                ],
                "abc": [
                    0.68196511,
                    0.75,
                    0.13126519
                ],
                "xyz": [
                    9.83128955220019,
                    4.786479075,
                    1.0562338507560525
                ],
                "label": "Sb",
                "properties": {}
            },
            {
                "species": [
                    {
                        "element": "Sb",
                        "occu": 1
                    }
                ],
                "abc": [
                    0.31530822,
                    0.25,
                    0.3832197
                ],
                "xyz": [
                    4.545520531114617,
                    1.595493025,
                    3.083602129525575
                ],
                "label": "Sb",
                "properties": {}
            },
            {
                "species": [
                    {
                        "element": "Sb",
                        "occu": 1
                    }
                ],
                "abc": [
                    0.18196511,
                    0.75,
                    0.36873481
                ],
                "xyz": [
                    2.623230512200189,
                    4.786479075,
                    2.9670485242439475
                ],
                "label": "Sb",
                "properties": {}
            },
            {
                "species": [
                    {
                        "element": "O",
                        "occu": 1
                    }
                ],
                "abc": [
                    0.27776995,
                    0.25,
                    0.62657993
                ],
                "xyz": [
                    4.004364398275696,
                    1.595493025,
                    5.041815977795467
                ],
                "label": "O",
                "properties": {}
            },
            {
                "species": [
                    {
                        "element": "O",
                        "occu": 1
                    }
                ],
                "abc": [
                    0.90890997,
                    0.02480189,
                    0.62936105
                ],
                "xyz": [
                    13.102953451609258,
                    0.158284970007269,
                    5.0641944399529875
                ],
                "label": "O",
                "properties": {}
            },
            {
                "species": [
                    {
                        "element": "O",
                        "occu": 1
                    }
                ],
                "abc": [
                    0.90890997,
                    0.47519811,
                    0.62936105
                ],
                "xyz": [
                    13.102953451609258,
                    3.032701079992731,
                    5.0641944399529875
                ],
                "label": "O",
                "properties": {}
            },
            {
                "species": [
                    {
                        "element": "O",
                        "occu": 1
                    }
                ],
                "abc": [
                    0.59362877,
                    0.5252633,
                    0.62085393
                ],
                "xyz": [
                    8.557822444005161,
                    3.3522157257539296,
                    4.995741348036967
                ],
                "label": "O",
                "properties": {}
            },
            {
                "species": [
                    {
                        "element": "O",
                        "occu": 1
                    }
                ],
                "abc": [
                    0.59362877,
                    0.9747367,
                    0.62085393
                ],
                "xyz": [
                    8.557822444005161,
                    6.22074242424607,
                    4.995741348036967
                ],
                "label": "O",
                "properties": {}
            },
            {
                "species": [
                    {
                        "element": "O",
                        "occu": 1
                    }
                ],
                "abc": [
                    0.40890997,
                    0.47519811,
                    0.87063895
                ],
                "xyz": [
                    5.894894411609258,
                    3.032701079992731,
                    7.005652685047012
                ],
                "label": "O",
                "properties": {}
            },
            {
                "species": [
                    {
                        "element": "O",
                        "occu": 1
                    }
                ],
                "abc": [
                    0.77776995,
                    0.25,
                    0.87342007
                ],
                "xyz": [
                    11.212423438275698,
                    1.595493025,
                    7.0280311472045325
                ],
                "label": "O",
                "properties": {}
            },
            {
                "species": [
                    {
                        "element": "O",
                        "occu": 1
                    }
                ],
                "abc": [
                    0.09362877,
                    0.5252633,
                    0.87914607
                ],
                "xyz": [
                    1.3497634040051616,
                    3.3522157257539296,
                    7.074105776963033
                ],
                "label": "O",
                "properties": {}
            },
            {
                "species": [
                    {
                        "element": "O",
                        "occu": 1
                    }
                ],
                "abc": [
                    0.40890997,
                    0.02480189,
                    0.87063895
                ],
                "xyz": [
                    5.894894411609258,
                    0.158284970007269,
                    7.005652685047012
                ],
                "label": "O",
                "properties": {}
            },
            {
                "species": [
                    {
                        "element": "O",
                        "occu": 1
                    }
                ],
                "abc": [
                    0.09362877,
                    0.9747367,
                    0.87914607
                ],
                "xyz": [
                    1.3497634040051616,
                    6.22074242424607,
                    7.074105776963033
                ],
                "label": "O",
                "properties": {}
            },
            {
                "species": [
                    {
                        "element": "O",
                        "occu": 1
                    }
                ],
                "abc": [
                    0.22223005,
                    0.75,
                    0.12657993
                ],
                "xyz": [
                    3.2036946417243044,
                    4.786479075,
                    1.0185336027954675
                ],
                "label": "O",
                "properties": {}
            },
            {
                "species": [
                    {
                        "element": "O",
                        "occu": 1
                    }
                ],
                "abc": [
                    0.59109003,
                    0.52480189,
                    0.12936105
                ],
                "xyz": [
                    8.521223668390743,
                    3.3492710200072686,
                    1.0409120649529875
                ],
                "label": "O",
                "properties": {}
            },
            {
                "species": [
                    {
                        "element": "O",
                        "occu": 1
                    }
                ],
                "abc": [
                    0.59109003,
                    0.97519811,
                    0.12936105
                ],
                "xyz": [
                    8.521223668390743,
                    6.22368712999273,
                    1.0409120649529875
                ],
                "label": "O",
                "properties": {}
            },
            {
                "species": [
                    {
                        "element": "O",
                        "occu": 1
                    }
                ],
                "abc": [
                    0.90637123,
                    0.0252633,
                    0.12085393
                ],
                "xyz": [
                    13.06635467599484,
                    0.16122967575393,
                    0.9724589730369675
                ],
                "label": "O",
                "properties": {}
            },
            {
                "species": [
                    {
                        "element": "O",
                        "occu": 1
                    }
                ],
                "abc": [
                    0.90637123,
                    0.4747367,
                    0.12085393
                ],
                "xyz": [
                    13.06635467599484,
                    3.02975637424607,
                    0.9724589730369675
                ],
                "label": "O",
                "properties": {}
            },
            {
                "species": [
                    {
                        "element": "O",
                        "occu": 1
                    }
                ],
                "abc": [
                    0.72223005,
                    0.75,
                    0.37342007
                ],
                "xyz": [
                    10.411753681724303,
                    4.786479075,
                    3.0047487722045325
                ],
                "label": "O",
                "properties": {}
            },
            {
                "species": [
                    {
                        "element": "O",
                        "occu": 1
                    }
                ],
                "abc": [
                    0.40637123,
                    0.0252633,
                    0.37914607
                ],
                "xyz": [
                    5.858295635994839,
                    0.16122967575393,
                    3.0508234019630325
                ],
                "label": "O",
                "properties": {}
            },
            {
                "species": [
                    {
                        "element": "O",
                        "occu": 1
                    }
                ],
                "abc": [
                    0.40637123,
                    0.4747367,
                    0.37914607
                ],
                "xyz": [
                    5.858295635994839,
                    3.02975637424607,
                    3.0508234019630325
                ],
                "label": "O",
                "properties": {}
            },
            {
                "species": [
                    {
                        "element": "O",
                        "occu": 1
                    }
                ],
                "abc": [
                    0.09109003,
                    0.52480189,
                    0.37063895
                ],
                "xyz": [
                    1.3131646283907425,
                    3.3492710200072686,
                    2.9823703100470125
                ],
                "label": "O",
                "properties": {}
            },
            {
                "species": [
                    {
                        "element": "O",
                        "occu": 1
                    }
                ],
                "abc": [
                    0.09109003,
                    0.97519811,
                    0.37063895
                ],
                "xyz": [
                    1.3131646283907425,
                    6.22368712999273,
                    2.9823703100470125
                ],
                "label": "O",
                "properties": {}
            }
        ]
    },
    "spacegroup": {
        "source": "spglib",
        "symbol": "Pnma",
        "number": 62,
        "point_group": "mmm",
        "crystal_system": "orthorhombic",
        "hall": "-P 2ac 2n"
    },
    "dielectric": {
        "epsilon_ionic": [
            [
                5.2575297,
                -0.0,
                -0.0
            ],
            [
                -0.0,
                6.16573482,
                -2e-08
            ],
            [
                -0.0,
                -2e-08,
                4.82693723
            ]
        ],
        "epsilon_ionic_avg": 5.416733916666666,
        "epsilon_ionic_eig": [
            4.82693723,
            6.16573482,
            5.2575297
        ],
        "epsilon_electronic": [
            [
                3.8683729,
                0.0,
                0.0
            ],
            [
                0.0,
                4.26542266,
                0.0
            ],
            [
                0.0,
                0.0,
                4.42277543
            ]
        ],
        "epsilon_electronic_avg": 4.185523663333333,
        "epsilon_electronic_eig": [
            3.8683729,
            4.26542266,
            4.42277543
        ]
    },
    "phonon": {
        "lowest_freq": -0.0643659577599474,
        "frequency": [
            -0.0643659577599474,
            -0.05349583068819766,
            -0.010652289611093015,
            0.7669231003261266,
            0.9787462627008549,
            1.3152538642683458,
            1.362883318928549,
            1.5347868339543154,
            1.6463557260724604,
            1.7179713476694727,
            1.7289210988211396,
            1.7993588391062236,
            1.8910442426914766,
            1.9728190554340852,
            2.290550495559324,
            2.3356066702404115,
            2.399750135369343,
            2.4620248340367508,
            2.5702928901575377,
            2.5966399216754024,
            2.6787867436270973,
            2.697325692464157,
            2.7794921395490606,
            2.8613921348049565,
            2.8862332260266874,
            2.894469312779515,
            3.0105189619597015,
            3.028741348800988,
            3.0330693901532806,
            3.1702754084295224,
            3.2824300814631897,
            3.292435165525353,
            3.2945514367640314,
            3.4595330848664014,
            3.4619917487822387,
            3.470577083207001,
            3.5355934738979498,
            3.8216540568767905,
            3.9038355535663203,
            4.329582154352503,
            4.366714069083143,
            4.371735201533018,
            4.418895993871614,
            4.423006809467966,
            4.754075429916821,
            4.754935085674097,
            4.890625927794267,
            5.056134317499532,
            5.179627496598791,
            5.289455848517353,
            5.291190313614023,
            5.330404615979972,
            5.354573242950991,
            5.422799836940987,
            5.434403549615495,
            5.66091510407336,
            5.6733239818959875,
            5.793016827350714,
            5.826527922198166,
            6.128770500517782,
            7.032020923203418,
            7.040670234475097,
            7.381143668663278,
            7.402393589480217,
            7.496324265459256,
            7.51715624767082,
            7.543908300248537,
            7.545519393894063,
            7.844602472502892,
            7.85851656781936,
            8.001007675180265,
            8.037084374537164,
            8.118700582363937,
            8.146601573423833,
            8.335409093854539,
            8.46616511046607,
            9.4022697465594,
            9.457593693479485,
            9.591076338984651,
            9.757555406143553,
            10.079501966079937,
            10.206476762336688,
            10.526482182924466,
            10.816991197336462,
            10.859351173150744,
            10.955380432020238,
            11.045636771218525,
            11.740815499896751,
            16.864163438031913,
            16.86494237994249,
            17.0747604338128,
            17.07642566050284,
            17.5989802223418,
            17.727122837634944,
            18.160733366153654,
            18.243812857374397,
            18.249241916897194,
            18.28453338181643,
            18.35846311136896,
            18.363157423389683,
            19.87223086771264,
            19.876565212438372,
            20.205424206395953,
            20.345953125002197,
            20.34796675446592,
            20.886198131568776,
            20.95578572501802,
            21.4515266494894
        ]
    },
    "born_effective_charge": {
        "avg_abs_trace": 2.33951,
        "tensors": [
            [
                [
                    2.82626,
                    0.0,
                    -0.03275
                ],
                [
                    -0.00015,
                    2.79095,
                    1e-05
                ],
                [
                    -0.10528,
                    0.0,
                    2.82794
                ]
            ],
            [
                [
                    2.60994,
                    0.0,
                    -0.04035
                ],
                [
                    0.00026,
                    2.98443,
                    -2e-05
                ],
                [
                    -0.10113,
                    0.0,
                    2.50788
                ]
            ],
            [
                [
                    2.60994,
                    0.0,
                    0.04035
                ],
                [
                    0.00026,
                    2.98443,
                    2e-05
                ],
                [
                    0.10123,
                    0.0,
                    2.50784
                ]
            ],
            [
                [
                    2.82626,
                    0.0,
                    0.03275
                ],
                [
                    -0.00015,
                    2.79095,
                    -1e-05
                ],
                [
                    0.10561,
                    0.0,
                    2.82808
                ]
            ],
            [
                [
                    2.61002,
                    0.0,
                    0.04018
                ],
                [
                    -0.00026,
                    2.98443,
                    -2e-05
                ],
                [
                    0.10113,
                    0.0,
                    2.50788
                ]
            ],
            [
                [
                    2.82622,
                    0.0,
                    0.03283
                ],
                [
                    0.00015,
                    2.79095,
                    1e-05
                ],
                [
                    0.10528,
                    0.0,
                    2.82794
                ]
            ],
            [
                [
                    2.61002,
                    0.0,
                    -0.04018
                ],
                [
                    -0.00026,
                    2.98443,
                    2e-05
                ],
                [
                    -0.10123,
                    0.0,
                    2.50784
                ]
            ],
            [
                [
                    2.82622,
                    0.0,
                    -0.03283
                ],
                [
                    0.00015,
                    2.79095,
                    -1e-05
                ],
                [
                    -0.10561,
                    0.0,
                    2.82808
                ]
            ],
            [
                [
                    2.31004,
                    0.0,
                    -0.28434
                ],
                [
                    5e-05,
                    2.87257,
                    0.00031
                ],
                [
                    -0.68012,
                    0.0,
                    2.31718
                ]
            ],
            [
                [
                    2.31343,
                    0.0,
                    -0.28924
                ],
                [
                    -5e-05,
                    2.8567,
                    -0.00033
                ],
                [
                    -0.67494,
                    0.0,
                    2.3661
                ]
            ],
            [
                [
                    2.31004,
                    0.0,
                    0.28434
                ],
                [
                    5e-05,
                    2.87257,
                    -0.00031
                ],
                [
                    0.68141,
                    0.0,
                    2.31875
                ]
            ],
            [
                [
                    2.31343,
                    0.0,
                    0.28924
                ],
                [
                    -5e-05,
                    2.8567,
                    0.00033
                ],
                [
                    0.67341,
                    0.0,
                    2.36441
                ]
            ],
            [
                [
                    2.31347,
                    0.0,
                    0.28924
                ],
                [
                    5e-05,
                    2.8567,
                    -0.00033
                ],
                [
                    0.67494,
                    0.0,
                    2.3661
                ]
            ],
            [
                [
                    2.30992,
                    0.0,
                    0.28441
                ],
                [
                    -5e-05,
                    2.87257,
                    0.00031
                ],
                [
                    0.68012,
                    0.0,
                    2.31718
                ]
            ],
            [
                [
                    2.31347,
                    0.0,
                    -0.28924
                ],
                [
                    5e-05,
                    2.8567,
                    0.00033
                ],
                [
                    -0.67341,
                    0.0,
                    2.36441
                ]
            ],
            [
                [
                    2.30992,
                    0.0,
                    -0.28441
                ],
                [
                    -5e-05,
                    2.87257,
                    -0.00031
                ],
                [
                    -0.68141,
                    0.0,
                    2.31875
                ]
            ],
            [
                [
                    -1.38207,
                    0.0,
                    -0.00625
                ],
                [
                    -2e-05,
                    -1.04001,
                    0.0
                ],
                [
                    -0.02959,
                    0.0,
                    -4.38787
                ]
            ],
            [
                [
                    -2.15635,
                    0.36616,
                    -0.08955
                ],
                [
                    0.859,
                    -2.6174,
                    0.12688
                ],
                [
                    0.21339,
                    -0.29185,
                    -1.43995
                ]
            ],
            [
                [
                    -2.15635,
                    -0.36616,
                    -0.08955
                ],
                [
                    -0.85902,
                    -2.61718,
                    -0.12693
                ],
                [
                    0.21339,
                    0.29185,
                    -1.43995
                ]
            ],
            [
                [
                    -2.18239,
                    -0.35028,
                    -0.0769
                ],
                [
                    -0.85127,
                    -2.61514,
                    -0.11164
                ],
                [
                    0.22875,
                    0.30102,
                    -1.37569
                ]
            ],
            [
                [
                    -2.18239,
                    0.35028,
                    -0.0769
                ],
                [
                    0.85125,
                    -2.61492,
                    0.11172
                ],
                [
                    0.22875,
                    -0.30102,
                    -1.37569
                ]
            ],
            [
                [
                    -2.15635,
                    -0.36616,
                    0.08955
                ],
                [
                    -0.85902,
                    -2.61718,
                    0.12693
                ],
                [
                    -0.21381,
                    -0.29194,
                    -1.43998
                ]
            ],
            [
                [
                    -1.38207,
                    0.0,
                    0.00625
                ],
                [
                    -2e-05,
                    -1.04001,
                    -0.0
                ],
                [
                    0.02841,
                    0.0,
                    -4.38793
                ]
            ],
            [
                [
                    -2.18239,
                    -0.35028,
                    0.0769
                ],
                [
                    -0.85127,
                    -2.61514,
                    0.11164
                ],
                [
                    -0.22848,
                    -0.30122,
                    -1.37556
                ]
            ],
            [
                [
                    -2.15635,
                    0.36616,
                    0.08955
                ],
                [
                    0.859,
                    -2.6174,
                    -0.12688
                ],
                [
                    -0.21381,
                    0.29194,
                    -1.43998
                ]
            ],
            [
                [
                    -2.18239,
                    0.35028,
                    0.0769
                ],
                [
                    0.85125,
                    -2.61492,
                    -0.11172
                ],
                [
                    -0.22848,
                    0.30122,
                    -1.37556
                ]
            ],
            [
                [
                    -1.38217,
                    0.0,
                    0.00636
                ],
                [
                    2e-05,
                    -1.04001,
                    0.0
                ],
                [
                    0.02959,
                    0.0,
                    -4.38787
                ]
            ],
            [
                [
                    -2.1565,
                    -0.36624,
                    0.08946
                ],
                [
                    -0.859,
                    -2.6174,
                    0.12688
                ],
                [
                    -0.21339,
                    -0.29185,
                    -1.43995
                ]
            ],
            [
                [
                    -2.1565,
                    0.36624,
                    0.08946
                ],
                [
                    0.85902,
                    -2.61718,
                    -0.12693
                ],
                [
                    -0.21339,
                    0.29185,
                    -1.43995
                ]
            ],
            [
                [
                    -2.18229,
                    0.35025,
                    0.07689
                ],
                [
                    0.85127,
                    -2.61514,
                    -0.11164
                ],
                [
                    -0.22875,
                    0.30102,
                    -1.37569
                ]
            ],
            [
                [
                    -2.18229,
                    -0.35025,
                    0.07689
                ],
                [
                    -0.85125,
                    -2.61492,
                    0.11172
                ],
                [
                    -0.22875,
                    -0.30102,
                    -1.37569
                ]
            ],
            [
                [
                    -1.38217,
                    0.0,
                    -0.00636
                ],
                [
                    2e-05,
                    -1.04001,
                    -0.0
                ],
                [
                    -0.02841,
                    0.0,
                    -4.38793
                ]
            ],
            [
                [
                    -2.18229,
                    0.35025,
                    -0.07689
                ],
                [
                    0.85127,
                    -2.61514,
                    0.11164
                ],
                [
                    0.22848,
                    -0.30122,
                    -1.37556
                ]
            ],
            [
                [
                    -2.18229,
                    -0.35025,
                    -0.07689
                ],
                [
                    -0.85125,
                    -2.61492,
                    -0.11172
                ],
                [
                    0.22848,
                    0.30122,
                    -1.37556
                ]
            ],
            [
                [
                    -2.1565,
                    -0.36624,
                    -0.08946
                ],
                [
                    -0.859,
                    -2.6174,
                    -0.12688
                ],
                [
                    0.21381,
                    0.29194,
                    -1.43998
                ]
            ],
            [
                [
                    -2.1565,
                    0.36624,
                    -0.08946
                ],
                [
                    0.85902,
                    -2.61718,
                    0.12693
                ],
                [
                    0.21381,
                    -0.29194,
                    -1.43998
                ]
            ]
        ]
    },
    "band_gap": 2.3354000000000004,
    "is_direct": false,
    "formula": "Ba2Sb2O5"
}