{
    "mp_id": "mp-7534",
    "nelements": 3,
    "nsites": 14,
    "elements": [
        "Cd",
        "K",
        "O"
    ],
    "structure": {
        "@module": "pymatgen.core.structure",
        "@class": "Structure",
        "charge": null,
        "lattice": {
            "matrix": [
                [
                    6.4539639,
                    0.0,
                    0.00644278
                ],
                [
                    0.0,
                    6.63136536,
                    0.0
                ],
                [
                    -3.22595086,
                    0.0,
                    6.01045024
                ]
            ],
            "a": 6.453967115806939,
            "b": 6.63136536,
            "c": 6.821456665452827,
            "alpha": 90.0,
            "beta": 118.16631137433366,
            "gamma": 90.0,
            "volume": 257.376638317283
        },
        "sites": [
            {
                "species": [
                    {
                        "element": "K",
                        "occu": 1
                    }
                ],
                "abc": [
                    0.15974816,
                    0.65326971,
                    0.91204426
                ],
                "xyz": [
                    -1.91120110717364,
                    4.332070125631246,
                    5.482825863657907
                ],
                "label": "K",
                "properties": {}
            },
            {
                "species": [
                    {
                        "element": "K",
                        "occu": 1
                    }
                ],
                "abc": [
                    0.15974816,
                    0.84673029,
                    0.41204426
                ],
                "xyz": [
                    -0.29822567717363957,
                    5.614977914368755,
                    2.477600743657907
                ],
                "label": "K",
                "properties": {}
            },
            {
                "species": [
                    {
                        "element": "K",
                        "occu": 1
                    }
                ],
                "abc": [
                    0.84025184,
                    0.34673029,
                    0.08795574
                ],
                "xyz": [
                    5.139214147173639,
                    2.2992952343687545,
                    0.5340671563420928
                ],
                "label": "K",
                "properties": {}
            },
            {
                "species": [
                    {
                        "element": "K",
                        "occu": 1
                    }
                ],
                "abc": [
                    0.84025184,
                    0.15326971,
                    0.58795574
                ],
                "xyz": [
                    3.526238717173639,
                    1.0163874456312456,
                    3.5392922763420924
                ],
                "label": "K",
                "properties": {}
            },
            {
                "species": [
                    {
                        "element": "Cd",
                        "occu": 1
                    }
                ],
                "abc": [
                    0.66065241,
                    0.87493857,
                    0.92111825
                ],
                "xyz": [
                    1.2923445938388034,
                    5.802037325225935,
                    5.54059184491498
                ],
                "label": "Cd",
                "properties": {}
            },
            {
                "species": [
                    {
                        "element": "Cd",
                        "occu": 1
                    }
                ],
                "abc": [
                    0.66065241,
                    0.62506143,
                    0.42111825
                ],
                "xyz": [
                    2.9053200238388035,
                    4.145010714774065,
                    2.5353667249149803
                ],
                "label": "Cd",
                "properties": {}
            },
            {
                "species": [
                    {
                        "element": "Cd",
                        "occu": 1
                    }
                ],
                "abc": [
                    0.33934759,
                    0.12506143,
                    0.07888175
                ],
                "xyz": [
                    1.935668446161196,
                    0.8293280347740648,
                    0.47630117508502023
                ],
                "label": "Cd",
                "properties": {}
            },
            {
                "species": [
                    {
                        "element": "Cd",
                        "occu": 1
                    }
                ],
                "abc": [
                    0.33934759,
                    0.37493857,
                    0.57888175
                ],
                "xyz": [
                    0.32269301616119583,
                    2.4863546452259353,
                    3.4815262950850197
                ],
                "label": "Cd",
                "properties": {}
            },
            {
                "species": [
                    {
                        "element": "O",
                        "occu": 1
                    }
                ],
                "abc": [
                    0.0,
                    0.5,
                    0.5
                ],
                "xyz": [
                    -1.61297543,
                    3.31568268,
                    3.00522512
                ],
                "label": "O",
                "properties": {}
            },
            {
                "species": [
                    {
                        "element": "O",
                        "occu": 1
                    }
                ],
                "abc": [
                    0.37038571,
                    0.39875111,
                    0.26597163
                ],
                "xyz": [
                    1.5324445928817667,
                    2.6442642981155497,
                    1.600995561011365
                ],
                "label": "O",
                "properties": {}
            },
            {
                "species": [
                    {
                        "element": "O",
                        "occu": 1
                    }
                ],
                "abc": [
                    0.62961429,
                    0.89875111,
                    0.23402837
                ],
                "xyz": [
                    3.308543877118233,
                    5.95994697811555,
                    1.410672338988635
                ],
                "label": "O",
                "properties": {}
            },
            {
                "species": [
                    {
                        "element": "O",
                        "occu": 1
                    }
                ],
                "abc": [
                    0.62961429,
                    0.60124889,
                    0.73402837
                ],
                "xyz": [
                    1.6955684471182328,
                    3.987101061884451,
                    4.415897458988635
                ],
                "label": "O",
                "properties": {}
            },
            {
                "species": [
                    {
                        "element": "O",
                        "occu": 1
                    }
                ],
                "abc": [
                    0.0,
                    0.0,
                    0.0
                ],
                "xyz": [
                    0.0,
                    0.0,
                    0.0
                ],
                "label": "O",
                "properties": {}
            },
            {
                "species": [
                    {
                        "element": "O",
                        "occu": 1
                    }
                ],
                "abc": [
                    0.37038571,
                    0.10124889,
                    0.76597163
                ],
                "xyz": [
                    -0.08053083711823339,
                    0.6714183818844504,
                    4.606220681011365
                ],
                "label": "O",
                "properties": {}
            }
        ]
    },
    "spacegroup": {
        "source": "spglib",
        "symbol": "P2_1/c",
        "number": 14,
        "point_group": "2/m",
        "crystal_system": "monoclinic",
        "hall": "-P 2ybc"
    },
    "dielectric": {
        "epsilon_ionic": [
            [
                39.39027151,
                5e-08,
                12.04567221
            ],
            [
                5e-08,
                8.47045439,
                -5e-08
            ],
            [
                12.04567221,
                -5e-08,
                9.04835187
            ]
        ],
        "epsilon_ionic_avg": 18.969692590000005,
        "epsilon_ionic_eig": [
            43.59084340153022,
            4.84777997846979,
            8.470454390000004
        ],
        "epsilon_electronic": [
            [
                5.21150181,
                0.0,
                0.02433031
            ],
            [
                0.0,
                5.27698671,
                0.0
            ],
            [
                0.02432763,
                0.0,
                4.74872182
            ]
        ],
        "epsilon_electronic_avg": 5.079070113333334,
        "epsilon_electronic_eig": [
            5.2127773014082015,
            4.747446328591798,
            5.27698671
        ]
    },
    "phonon": {
        "lowest_freq": -0.09408371369221415,
        "frequency": [
            -0.09408371369221415,
            -0.04263643920239291,
            -0.01384299713748209,
            1.0491088150492538,
            1.7079985075639157,
            1.7648747526486666,
            1.867937675788513,
            1.8786676391335855,
            2.8087452470455205,
            2.9687933692998087,
            3.20819502040558,
            3.2219190605924584,
            3.2468651970145577,
            3.5117940212544134,
            3.68740320472697,
            3.791580885858237,
            3.879259928691677,
            4.304518880144657,
            4.408403931829656,
            4.646306434962385,
            4.883589234297753,
            5.310937753228359,
            5.332747665349974,
            5.585831877942393,
            5.874030918358859,
            6.376236738020545,
            6.381862341689721,
            6.49227464984746,
            6.804526270778254,
            7.043059203152855,
            7.355341828914872,
            7.606692269683518,
            9.164158411757908,
            9.59207477502811,
            10.346956537376183,
            10.7623569895668,
            11.82668154449116,
            13.147044645120207,
            14.044951625894935,
            15.054390802966736,
            16.136969669299802,
            16.22726762136497
        ]
    },
    "born_effective_charge": {
        "avg_abs_trace": 1.8936638095238096,
        "tensors": [
            [
                [
                    1.11193,
                    -0.01405,
                    0.06804
                ],
                [
                    -0.01404,
                    1.14165,
                    0.00019
                ],
                [
                    0.07146,
                    0.00891,
                    1.15189
                ]
            ],
            [
                [
                    1.11193,
                    0.01405,
                    0.06804
                ],
                [
                    0.01405,
                    1.14168,
                    -0.00017
                ],
                [
                    0.07146,
                    -0.00891,
                    1.15189
                ]
            ],
            [
                [
                    1.11194,
                    -0.01408,
                    0.06805
                ],
                [
                    -0.01405,
                    1.14168,
                    0.00017
                ],
                [
                    0.07154,
                    0.00885,
                    1.15194
                ]
            ],
            [
                [
                    1.11194,
                    0.01408,
                    0.06805
                ],
                [
                    0.01404,
                    1.14165,
                    -0.00019
                ],
                [
                    0.07154,
                    -0.00885,
                    1.15194
                ]
            ],
            [
                [
                    2.31728,
                    -0.06161,
                    -0.0601
                ],
                [
                    -0.07782,
                    2.25116,
                    0.10163
                ],
                [
                    -0.03365,
                    0.61707,
                    1.96815
                ]
            ],
            [
                [
                    2.31728,
                    0.06161,
                    -0.0601
                ],
                [
                    0.07761,
                    2.25061,
                    -0.10152
                ],
                [
                    -0.03365,
                    -0.61707,
                    1.96815
                ]
            ],
            [
                [
                    2.31728,
                    -0.06202,
                    -0.05982
                ],
                [
                    -0.07761,
                    2.25061,
                    0.10152
                ],
                [
                    -0.03359,
                    0.61745,
                    1.96795
                ]
            ],
            [
                [
                    2.31728,
                    0.06202,
                    -0.05982
                ],
                [
                    0.07782,
                    2.25116,
                    -0.10163
                ],
                [
                    -0.03359,
                    -0.61745,
                    1.96795
                ]
            ],
            [
                [
                    -2.86755,
                    0.52372,
                    -0.30412
                ],
                [
                    0.51376,
                    -1.89169,
                    0.12408
                ],
                [
                    -0.34934,
                    0.30653,
                    -1.62579
                ]
            ],
            [
                [
                    -1.99543,
                    -0.30396,
                    0.14407
                ],
                [
                    0.00736,
                    -2.44657,
                    -0.76561
                ],
                [
                    0.13687,
                    -0.46422,
                    -2.30707
                ]
            ],
            [
                [
                    -1.99545,
                    0.30413,
                    0.14388
                ],
                [
                    -0.00736,
                    -2.44657,
                    0.76561
                ],
                [
                    0.1367,
                    0.46374,
                    -2.30708
                ]
            ],
            [
                [
                    -1.99545,
                    -0.30413,
                    0.14388
                ],
                [
                    0.00753,
                    -2.44685,
                    -0.76588
                ],
                [
                    0.1367,
                    -0.46374,
                    -2.30708
                ]
            ],
            [
                [
                    -2.86755,
                    -0.52372,
                    -0.30412
                ],
                [
                    -0.51376,
                    -1.89169,
                    -0.12408
                ],
                [
                    -0.34934,
                    -0.30653,
                    -1.62579
                ]
            ],
            [
                [
                    -1.99543,
                    0.30396,
                    0.14407
                ],
                [
                    -0.00753,
                    -2.44685,
                    0.76588
                ],
                [
                    0.13687,
                    0.46422,
                    -2.30707
                ]
            ]
        ]
    },
    "band_gap": 0.6029,
    "is_direct": true,
    "formula": "K2Cd2O3"
}