{
    "mp_id": "mp-755352",
    "nelements": 3,
    "nsites": 12,
    "elements": [
        "Hf",
        "Li",
        "O"
    ],
    "structure": {
        "@module": "pymatgen.core.structure",
        "@class": "Structure",
        "charge": null,
        "lattice": {
            "matrix": [
                [
                    2.69214887,
                    -4.5095514,
                    0.00071006
                ],
                [
                    2.69214887,
                    4.5095514,
                    0.00071006
                ],
                [
                    -2.04489363,
                    0.0,
                    4.99623196
                ]
            ],
            "a": 5.252020551337308,
            "b": 5.252020551337308,
            "c": 5.398511253682817,
            "alpha": 101.18860005453261,
            "beta": 101.18860005453261,
            "gamma": 118.3265940860488,
            "volume": 121.32544186608203
        },
        "sites": [
            {
                "species": [
                    {
                        "element": "Li",
                        "occu": 1
                    }
                ],
                "abc": [
                    0.92433279,
                    0.07566721,
                    0.25
                ],
                "xyz": [
                    2.1809254625000003,
                    -3.8271010544208126,
                    1.2497680500000001
                ],
                "label": "Li",
                "properties": {}
            },
            {
                "species": [
                    {
                        "element": "Li",
                        "occu": 1
                    }
                ],
                "abc": [
                    0.2407705,
                    0.7592295,
                    0.25
                ],
                "xyz": [
                    2.1809254625000003,
                    2.3380175092926,
                    1.2497680500000001
                ],
                "label": "Li",
                "properties": {}
            },
            {
                "species": [
                    {
                        "element": "Li",
                        "occu": 1
                    }
                ],
                "abc": [
                    0.07566721,
                    0.92433279,
                    0.75
                ],
                "xyz": [
                    1.1584786475000002,
                    3.8271010544208126,
                    3.7478840300000003
                ],
                "label": "Li",
                "properties": {}
            },
            {
                "species": [
                    {
                        "element": "Li",
                        "occu": 1
                    }
                ],
                "abc": [
                    0.7592295,
                    0.2407705,
                    0.75
                ],
                "xyz": [
                    1.1584786475000002,
                    -2.3380175092926,
                    3.7478840300000003
                ],
                "label": "Li",
                "properties": {}
            },
            {
                "species": [
                    {
                        "element": "Hf",
                        "occu": 1
                    }
                ],
                "abc": [
                    0.5906073,
                    0.4093927,
                    0.25
                ],
                "xyz": [
                    2.1809254624999994,
                    -0.8171965531304397,
                    1.2497680500000001
                ],
                "label": "Hf",
                "properties": {}
            },
            {
                "species": [
                    {
                        "element": "Hf",
                        "occu": 1
                    }
                ],
                "abc": [
                    0.4093927,
                    0.5906073,
                    0.75
                ],
                "xyz": [
                    1.1584786474999997,
                    0.8171965531304397,
                    3.7478840300000003
                ],
                "label": "Hf",
                "properties": {}
            },
            {
                "species": [
                    {
                        "element": "O",
                        "occu": 1
                    }
                ],
                "abc": [
                    0.65511931,
                    0.8074724,
                    0.5128537
                ],
                "xyz": [
                    2.8887833550959368,
                    0.687044090303826,
                    2.5633745746138543
                ],
                "label": "O",
                "properties": {}
            },
            {
                "species": [
                    {
                        "element": "O",
                        "occu": 1
                    }
                ],
                "abc": [
                    0.8074724,
                    0.65511931,
                    0.0128537
                ],
                "xyz": [
                    3.9112301700959367,
                    -0.687044090303826,
                    0.0652585946138546
                ],
                "label": "O",
                "properties": {}
            },
            {
                "species": [
                    {
                        "element": "O",
                        "occu": 1
                    }
                ],
                "abc": [
                    0.0,
                    0.5,
                    0.5
                ],
                "xyz": [
                    0.3236276200000001,
                    2.2547757,
                    2.4984710100000003
                ],
                "label": "O",
                "properties": {}
            },
            {
                "species": [
                    {
                        "element": "O",
                        "occu": 1
                    }
                ],
                "abc": [
                    0.34488069,
                    0.1925276,
                    0.4871463
                ],
                "xyz": [
                    0.4506207549040634,
                    -0.6870440903038261,
                    2.4342775053861456
                ],
                "label": "O",
                "properties": {}
            },
            {
                "species": [
                    {
                        "element": "O",
                        "occu": 1
                    }
                ],
                "abc": [
                    0.5,
                    0.0,
                    0.0
                ],
                "xyz": [
                    1.346074435,
                    -2.2547757,
                    0.00035503
                ],
                "label": "O",
                "properties": {}
            },
            {
                "species": [
                    {
                        "element": "O",
                        "occu": 1
                    }
                ],
                "abc": [
                    0.1925276,
                    0.34488069,
                    0.9871463
                ],
                "xyz": [
                    -0.5718260600959368,
                    0.6870440903038261,
                    4.932393485386146
                ],
                "label": "O",
                "properties": {}
            }
        ]
    },
    "spacegroup": {
        "source": "spglib",
        "symbol": "C2/c",
        "number": 15,
        "point_group": "2/m",
        "crystal_system": "monoclinic",
        "hall": "-C 2yc"
    },
    "dielectric": {
        "epsilon_ionic": [
            [
                22.66377701,
                -0.0,
                -8.81580539
            ],
            [
                -0.0,
                11.81588542,
                0.0
            ],
            [
                -8.81580539,
                0.0,
                18.47243355
            ]
        ],
        "epsilon_ionic_avg": 17.65069866,
        "epsilon_ionic_eig": [
            29.62957672090154,
            11.506633839098463,
            11.81588542
        ],
        "epsilon_electronic": [
            [
                3.54217662,
                0.0,
                -0.08695083
            ],
            [
                0.0,
                3.71314357,
                0.0
            ],
            [
                -0.08695379,
                0.0,
                3.93644301
            ]
        ],
        "epsilon_electronic_avg": 3.7305877333333335,
        "epsilon_electronic_eig": [
            3.523851696603283,
            3.954767933396717,
            3.71314357
        ]
    },
    "phonon": {
        "lowest_freq": -0.037286746899692816,
        "frequency": [
            -0.037286746899692816,
            -0.0247696490803014,
            -0.00829411764082662,
            2.6470990409806907,
            3.076944744248918,
            5.29725765718727,
            5.509924344319705,
            5.553474356870213,
            6.074609871078391,
            6.532551989839203,
            6.866881608483213,
            7.498429156475742,
            7.995842942045941,
            8.08397515836863,
            8.16908510964186,
            8.512541323053425,
            9.223839844940859,
            9.933123490189303,
            10.07501611297929,
            10.3457782923104,
            11.142039632468205,
            11.17471691183441,
            12.096728022834396,
            12.572882805013071,
            12.599332252171719,
            12.882143616347241,
            13.977033366888115,
            14.486108169113415,
            14.583292224542719,
            14.739189118515322,
            14.749071994470459,
            15.684858707156673,
            16.708683684171998,
            17.191849805347907,
            18.700610154586506,
            22.239425023791824
        ]
    },
    "born_effective_charge": {
        "avg_abs_trace": 2.3210508333333335,
        "tensors": [
            [
                [
                    1.25246,
                    0.0,
                    0.05577
                ],
                [
                    0.0,
                    0.93932,
                    -0.0
                ],
                [
                    0.00913,
                    -1e-05,
                    1.00698
                ]
            ],
            [
                [
                    1.06048,
                    0.0,
                    -0.01158
                ],
                [
                    0.0,
                    1.18333,
                    -0.0
                ],
                [
                    -0.00546,
                    0.0,
                    1.01857
                ]
            ],
            [
                [
                    1.25246,
                    -0.0,
                    0.05577
                ],
                [
                    -0.0,
                    0.93931,
                    -0.0
                ],
                [
                    0.00913,
                    1e-05,
                    1.00698
                ]
            ],
            [
                [
                    1.06048,
                    -0.0,
                    -0.01158
                ],
                [
                    0.0,
                    1.18335,
                    -0.0
                ],
                [
                    -0.00546,
                    -0.0,
                    1.01857
                ]
            ],
            [
                [
                    4.05087,
                    1e-05,
                    -0.11619
                ],
                [
                    -0.0,
                    4.88133,
                    -0.0
                ],
                [
                    -0.0692,
                    -2e-05,
                    5.4961
                ]
            ],
            [
                [
                    4.05087,
                    -1e-05,
                    -0.11619
                ],
                [
                    -0.0,
                    4.88135,
                    -0.0
                ],
                [
                    -0.0692,
                    2e-05,
                    5.4961
                ]
            ],
            [
                [
                    -2.23471,
                    -0.10918,
                    0.3271
                ],
                [
                    -0.09245,
                    -2.07543,
                    -0.54031
                ],
                [
                    0.34929,
                    -0.56714,
                    -2.49375
                ]
            ],
            [
                [
                    -2.23471,
                    0.10918,
                    0.3271
                ],
                [
                    0.09234,
                    -2.07541,
                    0.54029
                ],
                [
                    0.34929,
                    0.56714,
                    -2.49375
                ]
            ],
            [
                [
                    -1.89442,
                    0.74073,
                    -0.58216
                ],
                [
                    0.73457,
                    -2.85316,
                    1.07185
                ],
                [
                    -0.63313,
                    1.06615,
                    -2.53406
                ]
            ],
            [
                [
                    -2.23468,
                    -0.10918,
                    0.32707
                ],
                [
                    -0.09234,
                    -2.07541,
                    -0.54029
                ],
                [
                    0.34937,
                    -0.56706,
                    -2.49384
                ]
            ],
            [
                [
                    -1.89442,
                    -0.74073,
                    -0.58216
                ],
                [
                    -0.73457,
                    -2.85316,
                    -1.07185
                ],
                [
                    -0.63313,
                    -1.06615,
                    -2.53406
                ]
            ],
            [
                [
                    -2.23468,
                    0.10918,
                    0.32707
                ],
                [
                    0.09245,
                    -2.07543,
                    0.54031
                ],
                [
                    0.34937,
                    0.56706,
                    -2.49384
                ]
            ]
        ]
    },
    "band_gap": 4.802,
    "is_direct": true,
    "formula": "Li2HfO3"
}