{
    "mp_id": "mp-7650",
    "nelements": 3,
    "nsites": 8,
    "elements": [
        "O",
        "Rb",
        "Sc"
    ],
    "structure": {
        "@module": "pymatgen.core.structure",
        "@class": "Structure",
        "charge": null,
        "lattice": {
            "matrix": [
                [
                    3.22311638,
                    0.0,
                    0.0
                ],
                [
                    -1.61155819,
                    2.79130065,
                    0.0
                ],
                [
                    0.0,
                    0.0,
                    12.65975247
                ]
            ],
            "a": 3.22311638,
            "b": 3.2231163675000163,
            "c": 12.65975247,
            "alpha": 90.0,
            "beta": 90.0,
            "gamma": 120.0000001282908,
            "volume": 113.89582852704363
        },
        "sites": [
            {
                "species": [
                    {
                        "element": "Rb",
                        "occu": 1
                    }
                ],
                "abc": [
                    0.333333,
                    0.666667,
                    0.75
                ],
                "xyz": [
                    -1.61155819000669e-06,
                    1.86086803043355,
                    9.4948143525
                ],
                "label": "Rb",
                "properties": {}
            },
            {
                "species": [
                    {
                        "element": "Rb",
                        "occu": 1
                    }
                ],
                "abc": [
                    0.666667,
                    0.333333,
                    0.25
                ],
                "xyz": [
                    1.61155980155819,
                    0.9304326195664501,
                    3.1649381175
                ],
                "label": "Rb",
                "properties": {}
            },
            {
                "species": [
                    {
                        "element": "Sc",
                        "occu": 1
                    }
                ],
                "abc": [
                    0.0,
                    0.0,
                    0.0
                ],
                "xyz": [
                    0.0,
                    0.0,
                    0.0
                ],
                "label": "Sc",
                "properties": {}
            },
            {
                "species": [
                    {
                        "element": "Sc",
                        "occu": 1
                    }
                ],
                "abc": [
                    0.0,
                    0.0,
                    0.5
                ],
                "xyz": [
                    0.0,
                    0.0,
                    6.329876235
                ],
                "label": "Sc",
                "properties": {}
            },
            {
                "species": [
                    {
                        "element": "O",
                        "occu": 1
                    }
                ],
                "abc": [
                    0.333333,
                    0.666667,
                    0.41566929
                ],
                "xyz": [
                    -1.61155819000669e-06,
                    1.86086803043355,
                    5.262270320780647
                ],
                "label": "O",
                "properties": {}
            },
            {
                "species": [
                    {
                        "element": "O",
                        "occu": 1
                    }
                ],
                "abc": [
                    0.666667,
                    0.333333,
                    0.91566929
                ],
                "xyz": [
                    1.61155980155819,
                    0.9304326195664501,
                    11.592146555780646
                ],
                "label": "O",
                "properties": {}
            },
            {
                "species": [
                    {
                        "element": "O",
                        "occu": 1
                    }
                ],
                "abc": [
                    0.333333,
                    0.666667,
                    0.08433071
                ],
                "xyz": [
                    -1.61155819000669e-06,
                    1.86086803043355,
                    1.067605914219354
                ],
                "label": "O",
                "properties": {}
            },
            {
                "species": [
                    {
                        "element": "O",
                        "occu": 1
                    }
                ],
                "abc": [
                    0.666667,
                    0.333333,
                    0.58433071
                ],
                "xyz": [
                    1.61155980155819,
                    0.9304326195664501,
                    7.397482149219354
                ],
                "label": "O",
                "properties": {}
            }
        ]
    },
    "spacegroup": {
        "source": "spglib",
        "symbol": "P6_3/mmc",
        "number": 194,
        "point_group": "6/mmm",
        "crystal_system": "hexagonal",
        "hall": "-P 6c 2c"
    },
    "dielectric": {
        "epsilon_ionic": [
            [
                16.29960729,
                -2e-08,
                0.0
            ],
            [
                -2e-08,
                16.29702072,
                0.0
            ],
            [
                0.0,
                0.0,
                6.85442353
            ]
        ],
        "epsilon_ionic_avg": 13.150350513333334,
        "epsilon_ionic_eig": [
            16.299607290000157,
            16.297020719999843,
            6.85442353
        ],
        "epsilon_electronic": [
            [
                4.32918048,
                0.0,
                0.0
            ],
            [
                -0.0,
                4.32918254,
                0.0
            ],
            [
                -0.0,
                0.0,
                3.79678178
            ]
        ],
        "epsilon_electronic_avg": 4.151714933333333,
        "epsilon_electronic_eig": [
            4.32918048,
            4.32918254,
            3.79678178
        ]
    },
    "phonon": {
        "lowest_freq": -0.04363354800379934,
        "frequency": [
            -0.04363354800379934,
            -0.0308745422126356,
            -0.030874534850837403,
            2.05121624500335,
            2.051216733513727,
            2.1148540671002602,
            2.1148545698018237,
            3.0434718442455995,
            3.0434725669731404,
            4.664905004359224,
            5.311172188096085,
            5.601856915938212,
            7.967941283138877,
            7.967943169524052,
            8.034286437017858,
            8.034288353455189,
            11.079290983564464,
            11.079293619636777,
            11.107433819953867,
            11.107436471350471,
            13.97665147098414,
            15.772520668122226,
            15.919016978284015,
            18.046847174482895
        ]
    },
    "born_effective_charge": {
        "avg_abs_trace": 2.5181379166666664,
        "tensors": [
            [
                [
                    1.03263,
                    -4e-05,
                    -0.0
                ],
                [
                    -0.0,
                    1.03238,
                    -0.0
                ],
                [
                    0.0,
                    -0.0,
                    1.88558
                ]
            ],
            [
                [
                    1.03263,
                    4e-05,
                    -0.0
                ],
                [
                    0.0,
                    1.03255,
                    -0.0
                ],
                [
                    -0.0,
                    0.0,
                    1.88558
                ]
            ],
            [
                [
                    4.38554,
                    -0.0,
                    -0.0
                ],
                [
                    -0.0,
                    4.38526,
                    -1e-05
                ],
                [
                    -0.0,
                    -0.0,
                    2.38735
                ]
            ],
            [
                [
                    4.38554,
                    -0.0,
                    -0.0
                ],
                [
                    -0.0,
                    4.38526,
                    1e-05
                ],
                [
                    0.0,
                    -0.0,
                    2.38735
                ]
            ],
            [
                [
                    -2.70909,
                    -0.00037,
                    -5e-05
                ],
                [
                    0.0,
                    -2.70878,
                    -0.00037
                ],
                [
                    -0.0,
                    -0.0,
                    -2.13648
                ]
            ],
            [
                [
                    -2.70909,
                    0.00037,
                    -5e-05
                ],
                [
                    -0.0,
                    -2.70894,
                    -0.00052
                ],
                [
                    0.0,
                    0.0,
                    -2.13648
                ]
            ],
            [
                [
                    -2.70909,
                    -0.00037,
                    5e-05
                ],
                [
                    0.0,
                    -2.70878,
                    0.00037
                ],
                [
                    0.0,
                    -0.0,
                    -2.13645
                ]
            ],
            [
                [
                    -2.70909,
                    0.00037,
                    5e-05
                ],
                [
                    -0.0,
                    -2.70894,
                    0.00052
                ],
                [
                    -0.0,
                    0.0,
                    -2.13645
                ]
            ]
        ]
    },
    "band_gap": 3.3497999999999997,
    "is_direct": false,
    "formula": "RbScO2"
}