{
    "mp_id": "mp-7258",
    "nelements": 3,
    "nsites": 18,
    "elements": [
        "K",
        "O",
        "Sn"
    ],
    "structure": {
        "@module": "pymatgen.core.structure",
        "@class": "Structure",
        "charge": null,
        "lattice": {
            "matrix": [
                [
                    6.54079367,
                    -7.199e-05,
                    -0.00043774
                ],
                [
                    2.52469827,
                    6.03700475,
                    0.00099813
                ],
                [
                    3.10685201,
                    0.5520445,
                    9.31575444
                ]
            ],
            "a": 6.540793685043959,
            "b": 6.543663247931319,
            "c": 9.835678081779669,
            "alpha": 79.99130049013641,
            "beta": 71.59017608665269,
            "gamma": 67.30576510719595,
            "volume": 367.85504436217434
        },
        "sites": [
            {
                "species": [
                    {
                        "element": "K",
                        "occu": 1
                    }
                ],
                "abc": [
                    0.59424786,
                    0.23916946,
                    0.17113395
                ],
                "xyz": [
                    5.0223712195346195,
                    1.5382979420322687,
                    1.5942204507021114
                ],
                "label": "K",
                "properties": {}
            },
            {
                "species": [
                    {
                        "element": "K",
                        "occu": 1
                    }
                ],
                "abc": [
                    0.40575214,
                    0.76083054,
                    0.82886605
                ],
                "xyz": [
                    7.149972730465381,
                    5.050679317967732,
                    7.7220943792978884
                ],
                "label": "K",
                "properties": {}
            },
            {
                "species": [
                    {
                        "element": "K",
                        "occu": 1
                    }
                ],
                "abc": [
                    0.51413338,
                    0.77176063,
                    0.43860395
                ],
                "xyz": [
                    6.673980648506253,
                    4.901214474986741,
                    4.086471955305899
                ],
                "label": "K",
                "properties": {}
            },
            {
                "species": [
                    {
                        "element": "K",
                        "occu": 1
                    }
                ],
                "abc": [
                    0.48586662,
                    0.22823937,
                    0.56139605
                ],
                "xyz": [
                    5.498363301493747,
                    1.6877627850132588,
                    5.229842874694102
                ],
                "label": "K",
                "properties": {}
            },
            {
                "species": [
                    {
                        "element": "K",
                        "occu": 1
                    }
                ],
                "abc": [
                    0.23832568,
                    0.25791606,
                    0.97853795
                ],
                "xyz": [
                    5.250171926448441,
                    2.097219815594357,
                    9.115972361494803
                ],
                "label": "K",
                "properties": {}
            },
            {
                "species": [
                    {
                        "element": "K",
                        "occu": 1
                    }
                ],
                "abc": [
                    0.76167432,
                    0.74208394,
                    0.02146205
                ],
                "xyz": [
                    6.92217202355156,
                    4.491757444405643,
                    0.20034246850519738
                ],
                "label": "K",
                "properties": {}
            },
            {
                "species": [
                    {
                        "element": "K",
                        "occu": 1
                    }
                ],
                "abc": [
                    0.9579949,
                    0.72690188,
                    0.61209799
                ],
                "xyz": [
                    10.002952767256492,
                    4.7261464651316345,
                    5.702460757943534
                ],
                "label": "K",
                "properties": {}
            },
            {
                "species": [
                    {
                        "element": "K",
                        "occu": 1
                    }
                ],
                "abc": [
                    0.0420051,
                    0.27309812,
                    0.38790201
                ],
                "xyz": [
                    2.1693911827435093,
                    1.862830794868366,
                    3.613854072056466
                ],
                "label": "K",
                "properties": {}
            },
            {
                "species": [
                    {
                        "element": "Sn",
                        "occu": 1
                    }
                ],
                "abc": [
                    0.84418708,
                    0.22176011,
                    0.75354814
                ],
                "xyz": [
                    8.422693428622555,
                    1.7546981705748634,
                    7.019721241924937
                ],
                "label": "Sn",
                "properties": {}
            },
            {
                "species": [
                    {
                        "element": "Sn",
                        "occu": 1
                    }
                ],
                "abc": [
                    0.15581292,
                    0.77823989,
                    0.24645186
                ],
                "xyz": [
                    3.749650521377445,
                    4.834279089425137,
                    2.296593588075063
                ],
                "label": "Sn",
                "properties": {}
            },
            {
                "species": [
                    {
                        "element": "O",
                        "occu": 1
                    }
                ],
                "abc": [
                    0.7024575,
                    0.46865521,
                    0.62334851
                ],
                "xyz": [
                    7.714494138581517,
                    3.173339275495518,
                    5.807121934778592
                ],
                "label": "O",
                "properties": {}
            },
            {
                "species": [
                    {
                        "element": "O",
                        "occu": 1
                    }
                ],
                "abc": [
                    0.2975425,
                    0.53134479,
                    0.37665149
                ],
                "xyz": [
                    4.457849811418483,
                    3.4156379845044826,
                    3.5091928952214078
                ],
                "label": "O",
                "properties": {}
            },
            {
                "species": [
                    {
                        "element": "O",
                        "occu": 1
                    }
                ],
                "abc": [
                    0.15720503,
                    0.03556531,
                    0.64359782
                ],
                "xyz": [
                    3.1176005224437917,
                    0.5699912649581028,
                    5.995565933112358
                ],
                "label": "O",
                "properties": {}
            },
            {
                "species": [
                    {
                        "element": "O",
                        "occu": 1
                    }
                ],
                "abc": [
                    0.84279497,
                    0.96443469,
                    0.35640218
                ],
                "xyz": [
                    9.05474342755621,
                    6.0189859950418985,
                    3.320748896887641
                ],
                "label": "O",
                "properties": {}
            },
            {
                "species": [
                    {
                        "element": "O",
                        "occu": 1
                    }
                ],
                "abc": [
                    0.65013791,
                    0.03325861,
                    0.80653392
                ],
                "xyz": [
                    6.842167411969814,
                    0.6459781977196967,
                    7.51322055129828
                ],
                "label": "O",
                "properties": {}
            },
            {
                "species": [
                    {
                        "element": "O",
                        "occu": 1
                    }
                ],
                "abc": [
                    0.34986209,
                    0.96674139,
                    0.19346608
                ],
                "xyz": [
                    5.330176538030186,
                    5.942999062280304,
                    1.8030942787017192
                ],
                "label": "O",
                "properties": {}
            },
            {
                "species": [
                    {
                        "element": "O",
                        "occu": 1
                    }
                ],
                "abc": [
                    0.8435958,
                    0.36129498,
                    0.91641531
                ],
                "xyz": [
                    9.277113627512545,
                    2.686980811550808,
                    8.537091336749372
                ],
                "label": "O",
                "properties": {}
            },
            {
                "species": [
                    {
                        "element": "O",
                        "occu": 1
                    }
                ],
                "abc": [
                    0.1564042,
                    0.63870502,
                    0.08358469
                ],
                "xyz": [
                    2.895230322487456,
                    3.9019964484491916,
                    0.7792234932506282
                ],
                "label": "O",
                "properties": {}
            }
        ]
    },
    "spacegroup": {
        "source": "spglib",
        "symbol": "P-1",
        "number": 2,
        "point_group": "-1",
        "crystal_system": "triclinic",
        "hall": "-P 1"
    },
    "dielectric": {
        "epsilon_ionic": [
            [
                4.44063876,
                -0.3801222,
                0.26341713
            ],
            [
                -0.3801222,
                5.24177901,
                -0.42012022
            ],
            [
                0.26341713,
                -0.42012022,
                4.30719821
            ]
        ],
        "epsilon_ionic_avg": 4.663205326666667,
        "epsilon_ionic_eig": [
            5.581133766928028,
            4.322352197730401,
            4.08613001534157
        ],
        "epsilon_electronic": [
            [
                2.85829566,
                0.00110094,
                0.00192588
            ],
            [
                0.00109983,
                2.88926591,
                0.02647403
            ],
            [
                0.00192598,
                0.02647395,
                2.8792247
            ]
        ],
        "epsilon_electronic_avg": 2.8755954233333347,
        "epsilon_electronic_eig": [
            2.9112725139896605,
            2.858661828033924,
            2.85685192797642
        ]
    },
    "phonon": {
        "lowest_freq": -0.07411171448070851,
        "frequency": [
            -0.07411171448070851,
            -0.041450458473232865,
            -0.024622939347133735,
            1.4893434054078636,
            2.130954946415093,
            2.368887298827093,
            2.388877229362606,
            2.4297062509119614,
            2.5778610683948444,
            2.738710675358439,
            2.8096989629428664,
            3.094440258525188,
            3.1308333484504853,
            3.270675493513993,
            3.372398163030279,
            3.5006827162282086,
            3.6583781985217043,
            3.9538903191299704,
            4.041961063536488,
            4.085885476648028,
            4.208245833334699,
            4.23641594189944,
            4.3831196544697315,
            4.531160156767555,
            4.586375315543757,
            4.893661481098252,
            5.030722327296516,
            5.356511954219201,
            5.379778395065876,
            5.458981261961289,
            5.522967858453599,
            5.61155675636749,
            5.761487519527198,
            5.806595499315084,
            5.888658267309911,
            6.101720128169773,
            7.335975812200564,
            7.439432696596385,
            7.748875853961741,
            7.839841136620104,
            8.073907381909034,
            8.217574330874422,
            8.55958432295414,
            8.591167103033087,
            9.06481266425102,
            9.526555327637451,
            16.52173368521169,
            16.528424966341415,
            16.563654999150756,
            16.88914440384911,
            17.365915817494706,
            17.898400598204283,
            18.51844179114132,
            18.548947409919084
        ]
    },
    "born_effective_charge": {
        "avg_abs_trace": 1.5861207407407405,
        "tensors": [
            [
                [
                    1.09582,
                    -0.06101,
                    -0.00349
                ],
                [
                    -0.0844,
                    1.17952,
                    -0.01545
                ],
                [
                    -0.08659,
                    -0.03442,
                    1.15501
                ]
            ],
            [
                [
                    1.09584,
                    -0.06099,
                    -0.00355
                ],
                [
                    -0.08451,
                    1.17959,
                    -0.01541
                ],
                [
                    -0.08656,
                    -0.03437,
                    1.15496
                ]
            ],
            [
                [
                    1.28569,
                    -0.03069,
                    0.09357
                ],
                [
                    -0.07728,
                    1.04376,
                    -0.03923
                ],
                [
                    0.06897,
                    -0.06629,
                    1.11646
                ]
            ],
            [
                [
                    1.28565,
                    -0.03068,
                    0.09358
                ],
                [
                    -0.07734,
                    1.04372,
                    -0.03917
                ],
                [
                    0.06899,
                    -0.06612,
                    1.11638
                ]
            ],
            [
                [
                    1.15053,
                    -0.04512,
                    -0.01847
                ],
                [
                    -0.01868,
                    1.12238,
                    -0.0156
                ],
                [
                    0.08513,
                    0.05222,
                    1.08587
                ]
            ],
            [
                [
                    1.15058,
                    -0.04519,
                    -0.01848
                ],
                [
                    -0.01862,
                    1.12239,
                    -0.01559
                ],
                [
                    0.08505,
                    0.05228,
                    1.08584
                ]
            ],
            [
                [
                    0.97653,
                    0.13763,
                    -0.04475
                ],
                [
                    0.16624,
                    1.17941,
                    0.10018
                ],
                [
                    -0.05926,
                    0.07223,
                    1.16765
                ]
            ],
            [
                [
                    0.97654,
                    0.1376,
                    -0.04473
                ],
                [
                    0.1662,
                    1.1795,
                    0.10017
                ],
                [
                    -0.05923,
                    0.07219,
                    1.16762
                ]
            ],
            [
                [
                    2.56099,
                    0.02681,
                    0.01312
                ],
                [
                    0.03626,
                    2.64605,
                    0.08836
                ],
                [
                    0.0138,
                    0.10209,
                    2.64697
                ]
            ],
            [
                [
                    2.56103,
                    0.02671,
                    0.01301
                ],
                [
                    0.03622,
                    2.64605,
                    0.08816
                ],
                [
                    0.01371,
                    0.10197,
                    2.64693
                ]
            ],
            [
                [
                    -1.57788,
                    0.16999,
                    -0.22058
                ],
                [
                    0.19435,
                    -2.00015,
                    0.31014
                ],
                [
                    -0.17942,
                    0.30474,
                    -1.81361
                ]
            ],
            [
                [
                    -1.57747,
                    0.1695,
                    -0.21998
                ],
                [
                    0.1945,
                    -1.99991,
                    0.30999
                ],
                [
                    -0.1791,
                    0.30459,
                    -1.81348
                ]
            ],
            [
                [
                    -1.89916,
                    0.36104,
                    0.27134
                ],
                [
                    0.31387,
                    -1.75382,
                    -0.2893
                ],
                [
                    0.22891,
                    -0.22231,
                    -1.71326
                ]
            ],
            [
                [
                    -1.89929,
                    0.36106,
                    0.27156
                ],
                [
                    0.31404,
                    -1.75381,
                    -0.28949
                ],
                [
                    0.22918,
                    -0.22247,
                    -1.71342
                ]
            ],
            [
                [
                    -1.94801,
                    -0.37314,
                    0.19743
                ],
                [
                    -0.39192,
                    -1.7453,
                    0.12749
                ],
                [
                    0.25501,
                    0.13849,
                    -1.63697
                ]
            ],
            [
                [
                    -1.94807,
                    -0.37328,
                    0.19756
                ],
                [
                    -0.39098,
                    -1.74469,
                    0.1273
                ],
                [
                    0.25612,
                    0.13899,
                    -1.63708
                ]
            ],
            [
                [
                    -1.64489,
                    -0.18541,
                    -0.28901
                ],
                [
                    -0.13913,
                    -1.67265,
                    -0.26654
                ],
                [
                    -0.32759,
                    -0.3472,
                    -2.00843
                ]
            ],
            [
                [
                    -1.64445,
                    -0.18483,
                    -0.28813
                ],
                [
                    -0.13882,
                    -1.67204,
                    -0.26598
                ],
                [
                    -0.32711,
                    -0.34662,
                    -2.00742
                ]
            ]
        ]
    },
    "band_gap": 2.3491,
    "is_direct": false,
    "formula": "K4SnO4"
}