{
    "mp_id": "mp-752676",
    "nelements": 3,
    "nsites": 16,
    "elements": [
        "Bi",
        "O",
        "Ti"
    ],
    "structure": {
        "@module": "pymatgen.core.structure",
        "@class": "Structure",
        "charge": null,
        "lattice": {
            "matrix": [
                [
                    7.93328169,
                    -2.78654941,
                    0.0
                ],
                [
                    7.93328169,
                    2.78654941,
                    0.0
                ],
                [
                    0.0,
                    0.0,
                    5.47599534
                ]
            ],
            "a": 8.408437190540262,
            "b": 8.408437190540262,
            "c": 5.47599534,
            "alpha": 90.0,
            "beta": 90.0,
            "gamma": 38.707447249880644,
            "volume": 242.10997839875319
        },
        "sites": [
            {
                "species": [
                    {
                        "element": "Ti",
                        "occu": 1
                    }
                ],
                "abc": [
                    0.30844431,
                    0.69155569,
                    0.2376324
                ],
                "xyz": [
                    7.933281689999999,
                    1.0675587899032857,
                    1.301273915033016
                ],
                "label": "Ti",
                "properties": {}
            },
            {
                "species": [
                    {
                        "element": "Ti",
                        "occu": 1
                    }
                ],
                "abc": [
                    0.69155569,
                    0.30844431,
                    0.7376324
                ],
                "xyz": [
                    7.933281689999999,
                    -1.0675587899032857,
                    4.039271585033016
                ],
                "label": "Ti",
                "properties": {}
            },
            {
                "species": [
                    {
                        "element": "Bi",
                        "occu": 1
                    }
                ],
                "abc": [
                    0.61467616,
                    0.04442942,
                    0.25707565
                ],
                "xyz": [
                    5.228870229590831,
                    -1.5890207169014234,
                    1.407745061427471
                ],
                "label": "Bi",
                "properties": {}
            },
            {
                "species": [
                    {
                        "element": "Bi",
                        "occu": 1
                    }
                ],
                "abc": [
                    0.04442942,
                    0.61467616,
                    0.75707565
                ],
                "xyz": [
                    5.228870229590831,
                    1.5890207169014234,
                    4.145742731427471
                ],
                "label": "Bi",
                "properties": {}
            },
            {
                "species": [
                    {
                        "element": "Bi",
                        "occu": 1
                    }
                ],
                "abc": [
                    0.95557058,
                    0.38532384,
                    0.25707565
                ],
                "xyz": [
                    10.63769315040917,
                    -1.5890207169014234,
                    1.407745061427471
                ],
                "label": "Bi",
                "properties": {}
            },
            {
                "species": [
                    {
                        "element": "Bi",
                        "occu": 1
                    }
                ],
                "abc": [
                    0.38532384,
                    0.95557058,
                    0.75707565
                ],
                "xyz": [
                    10.63769315040917,
                    1.5890207169014234,
                    4.145742731427471
                ],
                "label": "Bi",
                "properties": {}
            },
            {
                "species": [
                    {
                        "element": "O",
                        "occu": 1
                    }
                ],
                "abc": [
                    0.05725519,
                    0.74788275,
                    0.15220207
                ],
                "xyz": [
                    6.387386077326319,
                    1.9244678198477398,
                    0.8334578260583537
                ],
                "label": "O",
                "properties": {}
            },
            {
                "species": [
                    {
                        "element": "O",
                        "occu": 1
                    }
                ],
                "abc": [
                    0.74788275,
                    0.05725519,
                    0.65220207
                ],
                "xyz": [
                    6.387386077326319,
                    -1.9244678198477398,
                    3.5714554960583533
                ],
                "label": "O",
                "properties": {}
            },
            {
                "species": [
                    {
                        "element": "O",
                        "occu": 1
                    }
                ],
                "abc": [
                    0.73578089,
                    0.75993859,
                    0.98497578
                ],
                "xyz": [
                    11.86596396406032,
                    0.06731662468195676,
                    5.3937227812928645
                ],
                "label": "O",
                "properties": {}
            },
            {
                "species": [
                    {
                        "element": "O",
                        "occu": 1
                    }
                ],
                "abc": [
                    0.75993859,
                    0.73578089,
                    0.48497578
                ],
                "xyz": [
                    11.86596396406032,
                    -0.06731662468195676,
                    2.6557251112928655
                ],
                "label": "O",
                "properties": {}
            },
            {
                "species": [
                    {
                        "element": "O",
                        "occu": 1
                    }
                ],
                "abc": [
                    0.26421911,
                    0.24006141,
                    0.48497578
                ],
                "xyz": [
                    4.0005994159396785,
                    -0.06731662468195698,
                    2.6557251112928655
                ],
                "label": "O",
                "properties": {}
            },
            {
                "species": [
                    {
                        "element": "O",
                        "occu": 1
                    }
                ],
                "abc": [
                    0.24006141,
                    0.26421911,
                    0.98497578
                ],
                "xyz": [
                    4.0005994159396785,
                    0.06731662468195698,
                    5.3937227812928645
                ],
                "label": "O",
                "properties": {}
            },
            {
                "species": [
                    {
                        "element": "O",
                        "occu": 1
                    }
                ],
                "abc": [
                    0.25211725,
                    0.94274481,
                    0.15220207
                ],
                "xyz": [
                    9.479177302673682,
                    1.9244678198477396,
                    0.8334578260583537
                ],
                "label": "O",
                "properties": {}
            },
            {
                "species": [
                    {
                        "element": "O",
                        "occu": 1
                    }
                ],
                "abc": [
                    0.94274481,
                    0.25211725,
                    0.65220207
                ],
                "xyz": [
                    9.479177302673682,
                    -1.9244678198477396,
                    3.5714554960583533
                ],
                "label": "O",
                "properties": {}
            },
            {
                "species": [
                    {
                        "element": "O",
                        "occu": 1
                    }
                ],
                "abc": [
                    0.60727951,
                    0.39272049,
                    0.07396059
                ],
                "xyz": [
                    7.93328169,
                    -0.5978793105911784,
                    0.4050078461836506
                ],
                "label": "O",
                "properties": {}
            },
            {
                "species": [
                    {
                        "element": "O",
                        "occu": 1
                    }
                ],
                "abc": [
                    0.39272049,
                    0.60727951,
                    0.57396059
                ],
                "xyz": [
                    7.93328169,
                    0.5978793105911784,
                    3.1430055161836505
                ],
                "label": "O",
                "properties": {}
            }
        ]
    },
    "spacegroup": {
        "source": "spglib",
        "symbol": "Cmc2_1",
        "number": 36,
        "point_group": "mm2",
        "crystal_system": "orthorhombic",
        "hall": "C 2c -2"
    },
    "dielectric": {
        "epsilon_ionic": [
            [
                18.07025324,
                0.0,
                -3.25e-06
            ],
            [
                0.0,
                26.74812969,
                6.24e-06
            ],
            [
                -3.25e-06,
                6.24e-06,
                25.06622529
            ]
        ],
        "epsilon_ionic_avg": 23.294869406666667,
        "epsilon_ionic_eig": [
            18.070253239998493,
            25.066225289978362,
            26.748129690023145
        ],
        "epsilon_electronic": [
            [
                5.90377621,
                0.0,
                0.0
            ],
            [
                0.0,
                5.82804057,
                0.0
            ],
            [
                0.0,
                0.0,
                5.69048583
            ]
        ],
        "epsilon_electronic_avg": 5.807434203333333,
        "epsilon_electronic_eig": [
            5.90377621,
            5.82804057,
            5.69048583
        ]
    },
    "phonon": {
        "lowest_freq": -0.04618624969934333,
        "frequency": [
            -0.04618624969934333,
            -0.04063015004425348,
            -0.008652008269088511,
            1.8740054812725968,
            2.1889412831575843,
            2.2346662948099314,
            2.481353920043466,
            2.6842822079358153,
            2.956750258426381,
            3.0523027772720845,
            3.2658410456849003,
            3.544855513435533,
            3.6570639498495146,
            3.927096378313056,
            3.970617375415168,
            4.353704660989725,
            4.723309589047213,
            4.724649108358293,
            4.8069660067018285,
            5.940274035756119,
            6.197092280841025,
            6.498151066888284,
            6.832624251439549,
            7.281892223183703,
            7.7986249502356255,
            7.948376749481604,
            8.048979393905935,
            8.07071910124283,
            8.480424999563455,
            8.995307162501753,
            9.248347311998835,
            9.594744884616755,
            10.722812905987364,
            11.266203043493915,
            12.19360193840104,
            12.700071491826971,
            13.582653509724775,
            13.627479301966527,
            14.532162643925325,
            15.398149738032439,
            16.086420570655246,
            16.27356859894593,
            19.57477038490863,
            20.061682629429516,
            21.186530496093415,
            22.626499409043717,
            23.38417717230347,
            23.88376734529424
        ]
    },
    "born_effective_charge": {
        "avg_abs_trace": 3.43358125,
        "tensors": [
            [
                [
                    5.35464,
                    0.0,
                    -0.0
                ],
                [
                    -0.0,
                    4.28178,
                    -0.73709
                ],
                [
                    -0.0,
                    0.16979,
                    3.9756
                ]
            ],
            [
                [
                    5.35464,
                    -0.0,
                    -0.0
                ],
                [
                    -0.0,
                    4.28176,
                    0.73709
                ],
                [
                    -0.0,
                    -0.16979,
                    3.9756
                ]
            ],
            [
                [
                    4.24643,
                    -1.0021,
                    0.25646
                ],
                [
                    -0.55244,
                    4.76054,
                    0.23504
                ],
                [
                    -0.07342,
                    0.25262,
                    4.78851
                ]
            ],
            [
                [
                    4.24643,
                    1.0021,
                    0.25646
                ],
                [
                    0.55244,
                    4.76054,
                    -0.23504
                ],
                [
                    -0.07342,
                    -0.25262,
                    4.78851
                ]
            ],
            [
                [
                    4.24643,
                    1.0021,
                    -0.25646
                ],
                [
                    0.55244,
                    4.76054,
                    0.23504
                ],
                [
                    0.07342,
                    0.25262,
                    4.78851
                ]
            ],
            [
                [
                    4.24643,
                    -1.0021,
                    -0.25646
                ],
                [
                    -0.55244,
                    4.76054,
                    -0.23504
                ],
                [
                    0.07342,
                    -0.25262,
                    4.78851
                ]
            ],
            [
                [
                    -3.81002,
                    1.7743,
                    -1.08532
                ],
                [
                    1.54482,
                    -2.47961,
                    0.01633
                ],
                [
                    -0.55131,
                    -0.2667,
                    -2.05048
                ]
            ],
            [
                [
                    -3.81002,
                    -1.7743,
                    -1.08532
                ],
                [
                    -1.54482,
                    -2.47961,
                    -0.01633
                ],
                [
                    -0.55131,
                    0.2667,
                    -2.05048
                ]
            ],
            [
                [
                    -2.39804,
                    0.21889,
                    -0.26437
                ],
                [
                    0.42522,
                    -3.01928,
                    0.1955
                ],
                [
                    -0.21624,
                    -0.20208,
                    -2.98525
                ]
            ],
            [
                [
                    -2.39804,
                    -0.21889,
                    -0.26437
                ],
                [
                    -0.42523,
                    -3.01926,
                    -0.1955
                ],
                [
                    -0.21624,
                    0.20208,
                    -2.98525
                ]
            ],
            [
                [
                    -2.39804,
                    0.21889,
                    0.26437
                ],
                [
                    0.42523,
                    -3.01926,
                    -0.1955
                ],
                [
                    0.21624,
                    0.20208,
                    -2.98525
                ]
            ],
            [
                [
                    -2.39804,
                    -0.21889,
                    0.26437
                ],
                [
                    -0.42522,
                    -3.01928,
                    0.1955
                ],
                [
                    0.21624,
                    -0.20208,
                    -2.98525
                ]
            ],
            [
                [
                    -3.81002,
                    -1.7743,
                    1.08532
                ],
                [
                    -1.54482,
                    -2.47961,
                    0.01633
                ],
                [
                    0.55131,
                    -0.2667,
                    -2.05048
                ]
            ],
            [
                [
                    -3.81002,
                    1.7743,
                    1.08532
                ],
                [
                    1.54482,
                    -2.47961,
                    -0.01633
                ],
                [
                    0.55131,
                    0.2667,
                    -2.05048
                ]
            ],
            [
                [
                    -1.43138,
                    -0.0,
                    0.0
                ],
                [
                    -0.0,
                    -2.80509,
                    -1.63625
                ],
                [
                    -0.0,
                    -1.37555,
                    -3.48117
                ]
            ],
            [
                [
                    -1.43138,
                    0.0,
                    0.0
                ],
                [
                    -0.0,
                    -2.80509,
                    1.63625
                ],
                [
                    -0.0,
                    1.37555,
                    -3.48117
                ]
            ]
        ]
    },
    "band_gap": 2.5550999999999995,
    "is_direct": false,
    "formula": "TiBi2O5"
}