{
    "mp_id": "mp-7471",
    "nelements": 3,
    "nsites": 28,
    "elements": [
        "Au",
        "Li",
        "O"
    ],
    "structure": {
        "@module": "pymatgen.core.structure",
        "@class": "Structure",
        "charge": null,
        "lattice": {
            "matrix": [
                [
                    9.06661973,
                    0.0,
                    0.0
                ],
                [
                    0.0,
                    9.06661973,
                    0.0
                ],
                [
                    0.0,
                    0.0,
                    3.5929653
                ]
            ],
            "a": 9.06661973,
            "b": 9.06661973,
            "c": 3.5929653,
            "alpha": 90.0,
            "beta": 90.0,
            "gamma": 90.0,
            "volume": 295.35465836434344
        },
        "sites": [
            {
                "species": [
                    {
                        "element": "Li",
                        "occu": 1
                    }
                ],
                "abc": [
                    0.59414112,
                    0.13880362,
                    0.0
                ],
                "xyz": [
                    5.386851600996297,
                    1.2584796396874225,
                    0.0
                ],
                "label": "Li",
                "properties": {}
            },
            {
                "species": [
                    {
                        "element": "Li",
                        "occu": 1
                    }
                ],
                "abc": [
                    0.36119638,
                    0.09414112,
                    0.5
                ],
                "xyz": [
                    3.274830225312577,
                    0.8535417359962975,
                    1.79648265
                ],
                "label": "Li",
                "properties": {}
            },
            {
                "species": [
                    {
                        "element": "Li",
                        "occu": 1
                    }
                ],
                "abc": [
                    0.63880362,
                    0.90585888,
                    0.5
                ],
                "xyz": [
                    5.791789504687422,
                    8.213077994003703,
                    1.79648265
                ],
                "label": "Li",
                "properties": {}
            },
            {
                "species": [
                    {
                        "element": "Li",
                        "occu": 1
                    }
                ],
                "abc": [
                    0.40585888,
                    0.86119638,
                    0.0
                ],
                "xyz": [
                    3.679768129003702,
                    7.808140090312577,
                    0.0
                ],
                "label": "Li",
                "properties": {}
            },
            {
                "species": [
                    {
                        "element": "Li",
                        "occu": 1
                    }
                ],
                "abc": [
                    0.09414112,
                    0.36119638,
                    0.5
                ],
                "xyz": [
                    0.8535417359962975,
                    3.274830225312577,
                    1.79648265
                ],
                "label": "Li",
                "properties": {}
            },
            {
                "species": [
                    {
                        "element": "Li",
                        "occu": 1
                    }
                ],
                "abc": [
                    0.90585888,
                    0.63880362,
                    0.5
                ],
                "xyz": [
                    8.213077994003703,
                    5.791789504687422,
                    1.79648265
                ],
                "label": "Li",
                "properties": {}
            },
            {
                "species": [
                    {
                        "element": "Li",
                        "occu": 1
                    }
                ],
                "abc": [
                    0.13880362,
                    0.59414112,
                    0.0
                ],
                "xyz": [
                    1.2584796396874225,
                    5.386851600996297,
                    0.0
                ],
                "label": "Li",
                "properties": {}
            },
            {
                "species": [
                    {
                        "element": "Li",
                        "occu": 1
                    }
                ],
                "abc": [
                    0.86119638,
                    0.40585888,
                    0.0
                ],
                "xyz": [
                    7.808140090312577,
                    3.679768129003702,
                    0.0
                ],
                "label": "Li",
                "properties": {}
            },
            {
                "species": [
                    {
                        "element": "Li",
                        "occu": 1
                    }
                ],
                "abc": [
                    0.1662763,
                    0.1662763,
                    0.0
                ],
                "xyz": [
                    1.5075639822113989,
                    1.5075639822113989,
                    0.0
                ],
                "label": "Li",
                "properties": {}
            },
            {
                "species": [
                    {
                        "element": "Li",
                        "occu": 1
                    }
                ],
                "abc": [
                    0.3337237,
                    0.6662763,
                    0.5
                ],
                "xyz": [
                    3.025745882788601,
                    6.040873847211399,
                    1.79648265
                ],
                "label": "Li",
                "properties": {}
            },
            {
                "species": [
                    {
                        "element": "Li",
                        "occu": 1
                    }
                ],
                "abc": [
                    0.6662763,
                    0.3337237,
                    0.5
                ],
                "xyz": [
                    6.040873847211399,
                    3.025745882788601,
                    1.79648265
                ],
                "label": "Li",
                "properties": {}
            },
            {
                "species": [
                    {
                        "element": "Li",
                        "occu": 1
                    }
                ],
                "abc": [
                    0.8337237,
                    0.8337237,
                    0.0
                ],
                "xyz": [
                    7.5590557477886,
                    7.5590557477886,
                    0.0
                ],
                "label": "Li",
                "properties": {}
            },
            {
                "species": [
                    {
                        "element": "Au",
                        "occu": 1
                    }
                ],
                "abc": [
                    0.61779155,
                    0.61779155,
                    0.0
                ],
                "xyz": [
                    5.601281056257281,
                    5.601281056257281,
                    0.0
                ],
                "label": "Au",
                "properties": {}
            },
            {
                "species": [
                    {
                        "element": "Au",
                        "occu": 1
                    }
                ],
                "abc": [
                    0.11779155,
                    0.88220845,
                    0.5
                ],
                "xyz": [
                    1.0679711912572813,
                    7.998648538742718,
                    1.79648265
                ],
                "label": "Au",
                "properties": {}
            },
            {
                "species": [
                    {
                        "element": "Au",
                        "occu": 1
                    }
                ],
                "abc": [
                    0.38220845,
                    0.38220845,
                    0.0
                ],
                "xyz": [
                    3.465338673742718,
                    3.465338673742718,
                    0.0
                ],
                "label": "Au",
                "properties": {}
            },
            {
                "species": [
                    {
                        "element": "Au",
                        "occu": 1
                    }
                ],
                "abc": [
                    0.88220845,
                    0.11779155,
                    0.5
                ],
                "xyz": [
                    7.998648538742718,
                    1.0679711912572813,
                    1.79648265
                ],
                "label": "Au",
                "properties": {}
            },
            {
                "species": [
                    {
                        "element": "O",
                        "occu": 1
                    }
                ],
                "abc": [
                    0.10664752,
                    0.10664752,
                    0.5
                ],
                "xyz": [
                    0.9669325089875694,
                    0.9669325089875694,
                    1.79648265
                ],
                "label": "O",
                "properties": {}
            },
            {
                "species": [
                    {
                        "element": "O",
                        "occu": 1
                    }
                ],
                "abc": [
                    0.89335248,
                    0.89335248,
                    0.5
                ],
                "xyz": [
                    8.099687221012429,
                    8.099687221012429,
                    1.79648265
                ],
                "label": "O",
                "properties": {}
            },
            {
                "species": [
                    {
                        "element": "O",
                        "occu": 1
                    }
                ],
                "abc": [
                    0.60664752,
                    0.39335248,
                    0.0
                ],
                "xyz": [
                    5.500242373987569,
                    3.5663773560124303,
                    0.0
                ],
                "label": "O",
                "properties": {}
            },
            {
                "species": [
                    {
                        "element": "O",
                        "occu": 1
                    }
                ],
                "abc": [
                    0.39335248,
                    0.60664752,
                    0.0
                ],
                "xyz": [
                    3.5663773560124303,
                    5.500242373987569,
                    0.0
                ],
                "label": "O",
                "properties": {}
            },
            {
                "species": [
                    {
                        "element": "O",
                        "occu": 1
                    }
                ],
                "abc": [
                    0.16390679,
                    0.38164969,
                    0.0
                ],
                "xyz": [
                    1.4860805360949665,
                    3.4602726093023835,
                    0.0
                ],
                "label": "O",
                "properties": {}
            },
            {
                "species": [
                    {
                        "element": "O",
                        "occu": 1
                    }
                ],
                "abc": [
                    0.11835031,
                    0.66390679,
                    0.5
                ],
                "xyz": [
                    1.0730372556976162,
                    6.019390401094966,
                    1.79648265
                ],
                "label": "O",
                "properties": {}
            },
            {
                "species": [
                    {
                        "element": "O",
                        "occu": 1
                    }
                ],
                "abc": [
                    0.88164969,
                    0.33609321,
                    0.5
                ],
                "xyz": [
                    7.993582474302383,
                    3.0472293289050327,
                    1.79648265
                ],
                "label": "O",
                "properties": {}
            },
            {
                "species": [
                    {
                        "element": "O",
                        "occu": 1
                    }
                ],
                "abc": [
                    0.83609321,
                    0.61835031,
                    0.0
                ],
                "xyz": [
                    7.580539193905033,
                    5.606347120697616,
                    0.0
                ],
                "label": "O",
                "properties": {}
            },
            {
                "species": [
                    {
                        "element": "O",
                        "occu": 1
                    }
                ],
                "abc": [
                    0.66390679,
                    0.11835031,
                    0.5
                ],
                "xyz": [
                    6.019390401094966,
                    1.0730372556976162,
                    1.79648265
                ],
                "label": "O",
                "properties": {}
            },
            {
                "species": [
                    {
                        "element": "O",
                        "occu": 1
                    }
                ],
                "abc": [
                    0.33609321,
                    0.88164969,
                    0.5
                ],
                "xyz": [
                    3.0472293289050327,
                    7.993582474302383,
                    1.79648265
                ],
                "label": "O",
                "properties": {}
            },
            {
                "species": [
                    {
                        "element": "O",
                        "occu": 1
                    }
                ],
                "abc": [
                    0.38164969,
                    0.16390679,
                    0.0
                ],
                "xyz": [
                    3.4602726093023835,
                    1.4860805360949665,
                    0.0
                ],
                "label": "O",
                "properties": {}
            },
            {
                "species": [
                    {
                        "element": "O",
                        "occu": 1
                    }
                ],
                "abc": [
                    0.61835031,
                    0.83609321,
                    0.0
                ],
                "xyz": [
                    5.606347120697616,
                    7.580539193905033,
                    0.0
                ],
                "label": "O",
                "properties": {}
            }
        ]
    },
    "spacegroup": {
        "source": "spglib",
        "symbol": "P4_2/mnm",
        "number": 136,
        "point_group": "4/mmm",
        "crystal_system": "tetragonal",
        "hall": "-P 4n 2n"
    },
    "dielectric": {
        "epsilon_ionic": [
            [
                11.02085499,
                0.0,
                -3e-08
            ],
            [
                0.0,
                11.02087988,
                -3e-08
            ],
            [
                -3e-08,
                -3e-08,
                1.46435624
            ]
        ],
        "epsilon_ionic_avg": 7.835363703333333,
        "epsilon_ionic_eig": [
            1.4643562400000008,
            11.020854989999998,
            11.02087988
        ],
        "epsilon_electronic": [
            [
                4.73260486,
                0.0,
                0.0
            ],
            [
                0.0,
                4.73260486,
                0.0
            ],
            [
                0.0,
                0.0,
                3.16347968
            ]
        ],
        "epsilon_electronic_avg": 4.209563133333334,
        "epsilon_electronic_eig": [
            4.73260486,
            4.73260486,
            3.16347968
        ]
    },
    "phonon": {
        "lowest_freq": -0.09662614297967971,
        "frequency": [
            -0.09662614297967971,
            -0.09662614297967971,
            -0.03875695659332589,
            2.2280502483567433,
            2.3500607562892704,
            2.504913183550408,
            2.504913183550408,
            2.5493759602163912,
            2.5493759602163912,
            3.1224163024277276,
            4.0941067433673615,
            4.3711302774407175,
            4.3711302774407175,
            4.47325618331276,
            5.084282680190617,
            5.352136525622037,
            5.408451845025444,
            5.444399267076936,
            5.444399267076936,
            5.741440847319405,
            6.252609815631496,
            6.303807624715564,
            6.303807624715564,
            6.696156003421807,
            6.903498800584382,
            6.903498800584382,
            7.516079330235326,
            7.903634799072465,
            8.376463160287262,
            8.79508304415018,
            8.79508304415018,
            8.853265688640667,
            8.853265688640667,
            10.030892486899683,
            10.104077465941108,
            10.334031212329961,
            10.422577106844782,
            10.809960804641877,
            10.809960804641877,
            11.29983469157574,
            12.096071795020475,
            12.372128878624924,
            12.501529598913296,
            12.643817817165445,
            12.643817817165445,
            13.006785945628494,
            13.006785945628494,
            14.29882129561344,
            14.29882129561344,
            14.329465783637762,
            14.470602688257898,
            14.663465699339412,
            15.087570219165084,
            15.297044044455815,
            15.297044044455815,
            15.386575857651795,
            15.417490638251135,
            15.694369906815584,
            15.773074693278444,
            15.773074693278444,
            15.776874792182763,
            15.812937294405708,
            15.812937294405708,
            16.003412058795842,
            16.45575270010466,
            16.98685403122032,
            16.991959784300242,
            17.171841160455333,
            17.171841160455333,
            17.183466051372402,
            17.26567805507832,
            17.26567805507832,
            17.397363126180192,
            17.517087963471173,
            17.517087963471173,
            17.658937555106192,
            17.74104017181737,
            17.74104017181737,
            17.9374047822259,
            18.077087111328478,
            18.077087111328478,
            18.73588084312715,
            18.788669234116682,
            19.039433759489675
        ]
    },
    "born_effective_charge": {
        "avg_abs_trace": 1.371300238095238,
        "tensors": [
            [
                [
                    1.04433,
                    -0.13312,
                    0.0
                ],
                [
                    -0.35705,
                    1.39402,
                    0.0
                ],
                [
                    -0.00018,
                    8e-05,
                    0.98963
                ]
            ],
            [
                [
                    1.394,
                    0.35701,
                    0.0
                ],
                [
                    0.13312,
                    1.04434,
                    0.0
                ],
                [
                    -8e-05,
                    -0.00018,
                    0.98963
                ]
            ],
            [
                [
                    1.39402,
                    0.35705,
                    0.0
                ],
                [
                    0.13309,
                    1.04406,
                    0.0
                ],
                [
                    8e-05,
                    0.00018,
                    0.98963
                ]
            ],
            [
                [
                    1.04406,
                    -0.13309,
                    0.0
                ],
                [
                    -0.35702,
                    1.394,
                    0.0
                ],
                [
                    0.00018,
                    -8e-05,
                    0.98963
                ]
            ],
            [
                [
                    1.04433,
                    0.13312,
                    0.0
                ],
                [
                    0.35702,
                    1.394,
                    0.0
                ],
                [
                    -0.00018,
                    -8e-05,
                    0.98963
                ]
            ],
            [
                [
                    1.04406,
                    0.13309,
                    0.0
                ],
                [
                    0.35705,
                    1.39402,
                    0.0
                ],
                [
                    0.00018,
                    8e-05,
                    0.98963
                ]
            ],
            [
                [
                    1.39402,
                    -0.35705,
                    0.0
                ],
                [
                    -0.13312,
                    1.04434,
                    0.0
                ],
                [
                    8e-05,
                    -0.00018,
                    0.98963
                ]
            ],
            [
                [
                    1.394,
                    -0.35701,
                    0.0
                ],
                [
                    -0.13309,
                    1.04406,
                    0.0
                ],
                [
                    -8e-05,
                    0.00018,
                    0.98963
                ]
            ],
            [
                [
                    0.99718,
                    0.45415,
                    0.0
                ],
                [
                    0.45415,
                    0.99718,
                    0.0
                ],
                [
                    0.0001,
                    0.0001,
                    1.00696
                ]
            ],
            [
                [
                    0.99735,
                    -0.45407,
                    0.0
                ],
                [
                    -0.45415,
                    0.99718,
                    0.0
                ],
                [
                    -0.0001,
                    0.0001,
                    1.00696
                ]
            ],
            [
                [
                    0.99718,
                    -0.45415,
                    0.0
                ],
                [
                    -0.45407,
                    0.99736,
                    0.0
                ],
                [
                    0.0001,
                    -0.0001,
                    1.00696
                ]
            ],
            [
                [
                    0.99735,
                    0.45407,
                    0.0
                ],
                [
                    0.45407,
                    0.99736,
                    0.0
                ],
                [
                    -0.0001,
                    -0.0001,
                    1.00696
                ]
            ],
            [
                [
                    2.26866,
                    0.61636,
                    0.0
                ],
                [
                    0.61634,
                    2.26866,
                    0.0
                ],
                [
                    7e-05,
                    7e-05,
                    0.00426
                ]
            ],
            [
                [
                    2.26866,
                    -0.61636,
                    0.0
                ],
                [
                    -0.61646,
                    2.26856,
                    0.0
                ],
                [
                    7e-05,
                    -7e-05,
                    0.00426
                ]
            ],
            [
                [
                    2.26856,
                    0.61646,
                    0.0
                ],
                [
                    0.61646,
                    2.26856,
                    0.0
                ],
                [
                    -7e-05,
                    -7e-05,
                    0.00426
                ]
            ],
            [
                [
                    2.26856,
                    -0.61646,
                    0.0
                ],
                [
                    -0.61634,
                    2.26866,
                    0.0
                ],
                [
                    -7e-05,
                    7e-05,
                    0.00426
                ]
            ],
            [
                [
                    -2.00828,
                    0.22717,
                    0.0
                ],
                [
                    0.22716,
                    -2.00829,
                    0.0
                ],
                [
                    -8e-05,
                    -8e-05,
                    -0.7092
                ]
            ],
            [
                [
                    -2.0084,
                    0.22733,
                    0.0
                ],
                [
                    0.22732,
                    -2.00838,
                    0.0
                ],
                [
                    8e-05,
                    8e-05,
                    -0.7092
                ]
            ],
            [
                [
                    -2.00828,
                    -0.22717,
                    0.0
                ],
                [
                    -0.22732,
                    -2.00838,
                    0.0
                ],
                [
                    -8e-05,
                    8e-05,
                    -0.7092
                ]
            ],
            [
                [
                    -2.0084,
                    -0.22733,
                    0.0
                ],
                [
                    -0.22716,
                    -2.00829,
                    0.0
                ],
                [
                    8e-05,
                    -8e-05,
                    -0.7092
                ]
            ],
            [
                [
                    -2.29952,
                    -0.02685,
                    0.0
                ],
                [
                    -0.33057,
                    -1.39644,
                    0.0
                ],
                [
                    0.0003,
                    0.00015,
                    -1.14064
                ]
            ],
            [
                [
                    -1.39607,
                    0.33053,
                    0.0
                ],
                [
                    0.02684,
                    -2.29953,
                    0.0
                ],
                [
                    -0.00015,
                    0.0003,
                    -1.14064
                ]
            ],
            [
                [
                    -1.39644,
                    0.33057,
                    0.0
                ],
                [
                    0.02668,
                    -2.29947,
                    0.0
                ],
                [
                    0.00015,
                    -0.0003,
                    -1.14064
                ]
            ],
            [
                [
                    -2.29946,
                    -0.02668,
                    0.0
                ],
                [
                    -0.33054,
                    -1.39607,
                    0.0
                ],
                [
                    -0.0003,
                    -0.00015,
                    -1.14064
                ]
            ],
            [
                [
                    -2.29952,
                    0.02685,
                    0.0
                ],
                [
                    0.33054,
                    -1.39607,
                    0.0
                ],
                [
                    0.0003,
                    -0.00015,
                    -1.14064
                ]
            ],
            [
                [
                    -2.29946,
                    0.02668,
                    0.0
                ],
                [
                    0.33057,
                    -1.39644,
                    0.0
                ],
                [
                    -0.0003,
                    0.00015,
                    -1.14064
                ]
            ],
            [
                [
                    -1.39644,
                    -0.33057,
                    0.0
                ],
                [
                    -0.02684,
                    -2.29953,
                    0.0
                ],
                [
                    0.00015,
                    0.0003,
                    -1.14064
                ]
            ],
            [
                [
                    -1.39607,
                    -0.33053,
                    0.0
                ],
                [
                    -0.02668,
                    -2.29947,
                    0.0
                ],
                [
                    -0.00015,
                    -0.0003,
                    -1.14064
                ]
            ]
        ]
    },
    "band_gap": 2.1695999999999995,
    "is_direct": false,
    "formula": "Li3AuO3"
}