{
    "mp_id": "mp-770846",
    "nelements": 3,
    "nsites": 12,
    "elements": [
        "Ba",
        "O",
        "Sn"
    ],
    "structure": {
        "@module": "pymatgen.core.structure",
        "@class": "Structure",
        "charge": null,
        "lattice": {
            "matrix": [
                [
                    -2.07717945,
                    2.07717945,
                    10.76584253
                ],
                [
                    2.07717945,
                    -2.07717945,
                    10.76584253
                ],
                [
                    2.07717945,
                    2.07717945,
                    -10.76584253
                ]
            ],
            "a": 11.159422669464645,
            "b": 11.159422669464645,
            "c": 11.159422669464645,
            "alpha": 158.54516259988716,
            "beta": 158.54516259988716,
            "gamma": 30.524468256286454,
            "volume": 185.80442354136557
        },
        "sites": [
            {
                "species": [
                    {
                        "element": "Ba",
                        "occu": 1
                    }
                ],
                "abc": [
                    0.18497856,
                    0.18497856,
                    0.0
                ],
                "xyz": [
                    0.0,
                    0.0,
                    3.9829000967723136
                ],
                "label": "Ba",
                "properties": {}
            },
            {
                "species": [
                    {
                        "element": "Ba",
                        "occu": 1
                    }
                ],
                "abc": [
                    0.81502144,
                    0.81502144,
                    0.0
                ],
                "xyz": [
                    0.0,
                    0.0,
                    17.548784963227686
                ],
                "label": "Ba",
                "properties": {}
            },
            {
                "species": [
                    {
                        "element": "Ba",
                        "occu": 1
                    }
                ],
                "abc": [
                    0.0,
                    0.0,
                    0.0
                ],
                "xyz": [
                    0.0,
                    0.0,
                    0.0
                ],
                "label": "Ba",
                "properties": {}
            },
            {
                "species": [
                    {
                        "element": "Sn",
                        "occu": 1
                    }
                ],
                "abc": [
                    0.59651189,
                    0.59651189,
                    0.0
                ],
                "xyz": [
                    0.0,
                    0.0,
                    12.843906150025365
                ],
                "label": "Sn",
                "properties": {}
            },
            {
                "species": [
                    {
                        "element": "Sn",
                        "occu": 1
                    }
                ],
                "abc": [
                    0.40348811,
                    0.40348811,
                    0.0
                ],
                "xyz": [
                    0.0,
                    0.0,
                    8.687778909974638
                ],
                "label": "Sn",
                "properties": {}
            },
            {
                "species": [
                    {
                        "element": "O",
                        "occu": 1
                    }
                ],
                "abc": [
                    0.59530269,
                    0.09530269,
                    0.5
                ],
                "xyz": [
                    -2.220446049250313e-16,
                    2.07717945,
                    2.0520275064508118
                ],
                "label": "O",
                "properties": {}
            },
            {
                "species": [
                    {
                        "element": "O",
                        "occu": 1
                    }
                ],
                "abc": [
                    0.09530269,
                    0.59530269,
                    0.5
                ],
                "xyz": [
                    2.07717945,
                    -2.220446049250313e-16,
                    2.0520275064508118
                ],
                "label": "O",
                "properties": {}
            },
            {
                "species": [
                    {
                        "element": "O",
                        "occu": 1
                    }
                ],
                "abc": [
                    0.69250168,
                    0.69250168,
                    0.0
                ],
                "xyz": [
                    0.0,
                    0.0,
                    14.910728077280902
                ],
                "label": "O",
                "properties": {}
            },
            {
                "species": [
                    {
                        "element": "O",
                        "occu": 1
                    }
                ],
                "abc": [
                    0.30749832,
                    0.30749832,
                    0.0
                ],
                "xyz": [
                    0.0,
                    0.0,
                    6.6209569827190995
                ],
                "label": "O",
                "properties": {}
            },
            {
                "species": [
                    {
                        "element": "O",
                        "occu": 1
                    }
                ],
                "abc": [
                    0.90469731,
                    0.40469731,
                    0.5
                ],
                "xyz": [
                    0.0,
                    2.07717945,
                    8.713815023549188
                ],
                "label": "O",
                "properties": {}
            },
            {
                "species": [
                    {
                        "element": "O",
                        "occu": 1
                    }
                ],
                "abc": [
                    0.40469731,
                    0.90469731,
                    0.5
                ],
                "xyz": [
                    2.07717945,
                    0.0,
                    8.713815023549188
                ],
                "label": "O",
                "properties": {}
            },
            {
                "species": [
                    {
                        "element": "O",
                        "occu": 1
                    }
                ],
                "abc": [
                    0.5,
                    0.5,
                    0.0
                ],
                "xyz": [
                    0.0,
                    0.0,
                    10.76584253
                ],
                "label": "O",
                "properties": {}
            }
        ]
    },
    "spacegroup": {
        "source": "spglib",
        "symbol": "I4/mmm",
        "number": 139,
        "point_group": "4/mmm",
        "crystal_system": "tetragonal",
        "hall": "-I 4 2"
    },
    "dielectric": {
        "epsilon_ionic": [
            [
                15.54766077,
                0.0,
                -0.0
            ],
            [
                0.0,
                15.54780467,
                0.0
            ],
            [
                -0.0,
                0.0,
                9.67853559
            ]
        ],
        "epsilon_ionic_avg": 13.591333676666665,
        "epsilon_ionic_eig": [
            15.54766077,
            15.54780467,
            9.67853559
        ],
        "epsilon_electronic": [
            [
                4.47517169,
                0.0,
                0.0
            ],
            [
                0.0,
                4.47517169,
                0.0
            ],
            [
                0.0,
                0.0,
                4.53905924
            ]
        ],
        "epsilon_electronic_avg": 4.49646754,
        "epsilon_electronic_eig": [
            4.47517169,
            4.47517169,
            4.53905924
        ]
    },
    "phonon": {
        "lowest_freq": -0.01859210761559716,
        "frequency": [
            -0.01859210761559716,
            -0.008250060100697234,
            -0.008250060100697234,
            2.1607844328327515,
            2.1607844328327515,
            2.510076460104095,
            2.510076460104095,
            3.697101159706156,
            3.697101159706156,
            3.791249350930861,
            3.791249350930861,
            4.024155155526768,
            4.07651413964803,
            4.406784712333431,
            5.65003113295193,
            6.165562974170061,
            6.165562974170061,
            6.650879291281838,
            6.650879291281838,
            6.671895672817909,
            6.671895672817909,
            7.049790709640196,
            7.1790866559907895,
            7.1790866559907895,
            7.416408859715079,
            7.416408859715079,
            7.626756507403475,
            8.718913819171565,
            11.619246015809711,
            15.62873345358488,
            16.29434169177749,
            18.12478864216545,
            18.12478864216545,
            18.21441752202372,
            18.21441752202372,
            19.61594304390136
        ]
    },
    "born_effective_charge": {
        "avg_abs_trace": 2.7571799999999995,
        "tensors": [
            [
                [
                    2.53926,
                    0.0,
                    -2e-05
                ],
                [
                    0.0,
                    2.53927,
                    -0.00013
                ],
                [
                    0.0,
                    0.0,
                    2.91689
                ]
            ],
            [
                [
                    2.53926,
                    0.0,
                    2e-05
                ],
                [
                    -0.0,
                    2.53927,
                    0.00013
                ],
                [
                    -0.0,
                    -0.0,
                    2.917
                ]
            ],
            [
                [
                    2.74658,
                    -0.0,
                    -0.0
                ],
                [
                    0.0,
                    2.74662,
                    0.0
                ],
                [
                    -0.0,
                    -0.0,
                    2.63107
                ]
            ],
            [
                [
                    4.4246,
                    0.0,
                    -7e-05
                ],
                [
                    -0.0,
                    4.4246,
                    -0.00013
                ],
                [
                    -0.0,
                    -0.0,
                    3.90785
                ]
            ],
            [
                [
                    4.4246,
                    -0.0,
                    7e-05
                ],
                [
                    0.0,
                    4.4246,
                    0.00013
                ],
                [
                    0.0,
                    0.0,
                    3.90777
                ]
            ],
            [
                [
                    -3.29975,
                    -0.0,
                    5e-05
                ],
                [
                    -0.0,
                    -1.98826,
                    7e-05
                ],
                [
                    0.0,
                    0.0,
                    -1.83206
                ]
            ],
            [
                [
                    -1.98825,
                    -0.0,
                    2e-05
                ],
                [
                    0.0,
                    -3.29976,
                    0.00012
                ],
                [
                    0.0,
                    0.0,
                    -1.83206
                ]
            ],
            [
                [
                    -2.10952,
                    -0.0,
                    6e-05
                ],
                [
                    -0.0,
                    -2.10953,
                    -8e-05
                ],
                [
                    -0.0,
                    -0.0,
                    -2.85667
                ]
            ],
            [
                [
                    -2.10952,
                    0.0,
                    -6e-05
                ],
                [
                    0.0,
                    -2.10953,
                    8e-05
                ],
                [
                    -0.0,
                    -0.0,
                    -2.8567
                ]
            ],
            [
                [
                    -1.98825,
                    -0.0,
                    -2e-05
                ],
                [
                    -0.0,
                    -3.29976,
                    -0.00012
                ],
                [
                    0.0,
                    0.0,
                    -1.83203
                ]
            ],
            [
                [
                    -3.29975,
                    -0.0,
                    -5e-05
                ],
                [
                    -0.0,
                    -1.98826,
                    -7e-05
                ],
                [
                    0.0,
                    0.0,
                    -1.83203
                ]
            ],
            [
                [
                    -1.87926,
                    -0.0,
                    -0.0
                ],
                [
                    0.0,
                    -1.87926,
                    0.0
                ],
                [
                    -0.0,
                    -0.0,
                    -3.23903
                ]
            ]
        ]
    },
    "band_gap": 1.8135999999999997,
    "is_direct": false,
    "formula": "Ba3Sn2O7"
}