{
    "mp_id": "mp-7971",
    "nelements": 4,
    "nsites": 20,
    "elements": [
        "Ba",
        "Li",
        "O",
        "Sb"
    ],
    "structure": {
        "@module": "pymatgen.core.structure",
        "@class": "Structure",
        "charge": null,
        "lattice": {
            "matrix": [
                [
                    -4.118831,
                    4.118831,
                    4.118831
                ],
                [
                    4.118831,
                    -4.118831,
                    4.118831
                ],
                [
                    4.118831,
                    4.118831,
                    -4.118831
                ]
            ],
            "a": 7.134024559789727,
            "b": 7.134024559789727,
            "c": 7.134024559789727,
            "alpha": 109.47122063449069,
            "beta": 109.47122063449069,
            "gamma": 109.47122063449069,
            "volume": 279.5000626731858
        },
        "sites": [
            {
                "species": [
                    {
                        "element": "Ba",
                        "occu": 1
                    }
                ],
                "abc": [
                    0.0,
                    0.5,
                    0.0
                ],
                "xyz": [
                    2.0594155,
                    -2.0594155,
                    2.0594155
                ],
                "label": "Ba",
                "properties": {}
            },
            {
                "species": [
                    {
                        "element": "Ba",
                        "occu": 1
                    }
                ],
                "abc": [
                    0.5,
                    0.0,
                    0.0
                ],
                "xyz": [
                    -2.0594155,
                    2.0594155,
                    2.0594155
                ],
                "label": "Ba",
                "properties": {}
            },
            {
                "species": [
                    {
                        "element": "Ba",
                        "occu": 1
                    }
                ],
                "abc": [
                    0.0,
                    0.0,
                    0.5
                ],
                "xyz": [
                    2.0594155,
                    2.0594155,
                    -2.0594155
                ],
                "label": "Ba",
                "properties": {}
            },
            {
                "species": [
                    {
                        "element": "Ba",
                        "occu": 1
                    }
                ],
                "abc": [
                    0.5,
                    0.5,
                    0.5
                ],
                "xyz": [
                    2.0594155,
                    2.0594155,
                    2.0594155
                ],
                "label": "Ba",
                "properties": {}
            },
            {
                "species": [
                    {
                        "element": "Li",
                        "occu": 1
                    }
                ],
                "abc": [
                    0.0,
                    0.0,
                    0.0
                ],
                "xyz": [
                    0.0,
                    0.0,
                    0.0
                ],
                "label": "Li",
                "properties": {}
            },
            {
                "species": [
                    {
                        "element": "Sb",
                        "occu": 1
                    }
                ],
                "abc": [
                    0.5,
                    0.0,
                    0.5
                ],
                "xyz": [
                    0.0,
                    4.118831,
                    0.0
                ],
                "label": "Sb",
                "properties": {}
            },
            {
                "species": [
                    {
                        "element": "Sb",
                        "occu": 1
                    }
                ],
                "abc": [
                    0.0,
                    0.5,
                    0.5
                ],
                "xyz": [
                    4.118831,
                    0.0,
                    0.0
                ],
                "label": "Sb",
                "properties": {}
            },
            {
                "species": [
                    {
                        "element": "Sb",
                        "occu": 1
                    }
                ],
                "abc": [
                    0.5,
                    0.5,
                    0.0
                ],
                "xyz": [
                    0.0,
                    0.0,
                    4.118831
                ],
                "label": "Sb",
                "properties": {}
            },
            {
                "species": [
                    {
                        "element": "O",
                        "occu": 1
                    }
                ],
                "abc": [
                    0.25,
                    0.75,
                    0.5
                ],
                "xyz": [
                    4.118831,
                    0.0,
                    2.0594155
                ],
                "label": "O",
                "properties": {}
            },
            {
                "species": [
                    {
                        "element": "O",
                        "occu": 1
                    }
                ],
                "abc": [
                    0.733025,
                    0.0,
                    0.733025
                ],
                "xyz": [
                    0.0,
                    6.0384121875500005,
                    0.0
                ],
                "label": "O",
                "properties": {}
            },
            {
                "species": [
                    {
                        "element": "O",
                        "occu": 1
                    }
                ],
                "abc": [
                    0.0,
                    0.733025,
                    0.733025
                ],
                "xyz": [
                    6.0384121875500005,
                    0.0,
                    0.0
                ],
                "label": "O",
                "properties": {}
            },
            {
                "species": [
                    {
                        "element": "O",
                        "occu": 1
                    }
                ],
                "abc": [
                    0.0,
                    0.266975,
                    0.266975
                ],
                "xyz": [
                    2.19924981245,
                    0.0,
                    0.0
                ],
                "label": "O",
                "properties": {}
            },
            {
                "species": [
                    {
                        "element": "O",
                        "occu": 1
                    }
                ],
                "abc": [
                    0.266975,
                    0.266975,
                    0.0
                ],
                "xyz": [
                    0.0,
                    0.0,
                    2.19924981245
                ],
                "label": "O",
                "properties": {}
            },
            {
                "species": [
                    {
                        "element": "O",
                        "occu": 1
                    }
                ],
                "abc": [
                    0.266975,
                    0.0,
                    0.266975
                ],
                "xyz": [
                    0.0,
                    2.19924981245,
                    0.0
                ],
                "label": "O",
                "properties": {}
            },
            {
                "species": [
                    {
                        "element": "O",
                        "occu": 1
                    }
                ],
                "abc": [
                    0.733025,
                    0.733025,
                    0.0
                ],
                "xyz": [
                    0.0,
                    0.0,
                    6.0384121875500005
                ],
                "label": "O",
                "properties": {}
            },
            {
                "species": [
                    {
                        "element": "O",
                        "occu": 1
                    }
                ],
                "abc": [
                    0.75,
                    0.25,
                    0.5
                ],
                "xyz": [
                    0.0,
                    4.118831,
                    2.0594155
                ],
                "label": "O",
                "properties": {}
            },
            {
                "species": [
                    {
                        "element": "O",
                        "occu": 1
                    }
                ],
                "abc": [
                    0.5,
                    0.25,
                    0.75
                ],
                "xyz": [
                    2.0594155,
                    4.118831,
                    0.0
                ],
                "label": "O",
                "properties": {}
            },
            {
                "species": [
                    {
                        "element": "O",
                        "occu": 1
                    }
                ],
                "abc": [
                    0.5,
                    0.75,
                    0.25
                ],
                "xyz": [
                    2.0594155,
                    0.0,
                    4.118831
                ],
                "label": "O",
                "properties": {}
            },
            {
                "species": [
                    {
                        "element": "O",
                        "occu": 1
                    }
                ],
                "abc": [
                    0.25,
                    0.5,
                    0.75
                ],
                "xyz": [
                    4.118831,
                    2.0594155,
                    0.0
                ],
                "label": "O",
                "properties": {}
            },
            {
                "species": [
                    {
                        "element": "O",
                        "occu": 1
                    }
                ],
                "abc": [
                    0.75,
                    0.5,
                    0.25
                ],
                "xyz": [
                    0.0,
                    2.0594155,
                    4.118831
                ],
                "label": "O",
                "properties": {}
            }
        ]
    },
    "spacegroup": {
        "source": "spglib",
        "symbol": "Im-3m",
        "number": 229,
        "point_group": "m-3m",
        "crystal_system": "cubic",
        "hall": "-I 4 2 3"
    },
    "dielectric": {
        "epsilon_ionic": [
            [
                20.02158351,
                -0.0,
                0.0
            ],
            [
                -0.0,
                20.02173918,
                0.0
            ],
            [
                0.0,
                0.0,
                20.02134673
            ]
        ],
        "epsilon_ionic_avg": 20.021556473333334,
        "epsilon_ionic_eig": [
            20.02158351,
            20.02173918,
            20.02134673
        ],
        "epsilon_electronic": [
            [
                4.48964817,
                -0.0,
                -0.0
            ],
            [
                -0.0,
                4.48964817,
                -0.0
            ],
            [
                0.0,
                0.0,
                4.48964817
            ]
        ],
        "epsilon_electronic_avg": 4.48964817,
        "epsilon_electronic_eig": [
            4.48964817,
            4.48964817,
            4.48964817
        ]
    },
    "phonon": {
        "lowest_freq": -0.03987152278409353,
        "frequency": [
            -0.03987152278409353,
            -0.03987152278409353,
            -0.03987152278409353,
            1.842979187290382,
            2.1104508150927983,
            2.1104508150927983,
            2.1104508150927983,
            2.9796150814583005,
            2.9796150814583005,
            3.15610658107288,
            3.15610658107288,
            3.15610658107288,
            3.5778540231546003,
            3.5778540231546003,
            3.5778540231546003,
            4.006066624394008,
            4.006066624394008,
            4.006066624394008,
            4.933008889266595,
            4.933008889266595,
            4.933008889266595,
            6.181396540166515,
            6.181396540166515,
            6.181396540166515,
            6.455141615651824,
            6.455141615651824,
            6.455141615651824,
            6.8729038356010514,
            6.8729038356010514,
            6.8729038356010514,
            7.00323562401835,
            7.00323562401835,
            7.00323562401835,
            7.2829337174671815,
            7.2829337174671815,
            7.2829337174671815,
            9.079543759820512,
            9.079543759820512,
            9.079543759820512,
            9.537848992027302,
            9.537848992027302,
            9.537848992027302,
            10.356846443819576,
            10.356846443819576,
            10.356846443819576,
            11.734018983639888,
            11.734018983639888,
            11.734018983639888,
            15.269591514562148,
            16.731980167231853,
            16.731980167231853,
            17.22617281234827,
            17.22617281234827,
            17.22617281234827,
            20.721005550869542,
            20.883597659329133,
            20.883597659329133,
            20.883597659329133,
            21.34674276572966,
            21.34674276572966
        ]
    },
    "born_effective_charge": {
        "avg_abs_trace": 2.6921136666666667,
        "tensors": [
            [
                [
                    2.73885,
                    0.18474,
                    -0.18474
                ],
                [
                    0.18475,
                    2.73886,
                    0.18475
                ],
                [
                    -0.18475,
                    0.18475,
                    2.73881
                ]
            ],
            [
                [
                    2.73885,
                    0.18474,
                    0.18474
                ],
                [
                    0.18475,
                    2.73886,
                    -0.18475
                ],
                [
                    0.18475,
                    -0.18475,
                    2.73881
                ]
            ],
            [
                [
                    2.73885,
                    -0.18474,
                    0.18474
                ],
                [
                    -0.18475,
                    2.73886,
                    0.18475
                ],
                [
                    0.18475,
                    0.18475,
                    2.73881
                ]
            ],
            [
                [
                    2.73885,
                    -0.18474,
                    -0.18474
                ],
                [
                    -0.18475,
                    2.73886,
                    -0.18475
                ],
                [
                    -0.18475,
                    -0.18475,
                    2.73881
                ]
            ],
            [
                [
                    1.42121,
                    0.0,
                    0.0
                ],
                [
                    -0.0,
                    1.42122,
                    -0.0
                ],
                [
                    -0.0,
                    -0.0,
                    1.42121
                ]
            ],
            [
                [
                    5.56063,
                    0.0,
                    0.0
                ],
                [
                    -0.0,
                    3.42328,
                    -0.0
                ],
                [
                    -0.0,
                    -0.0,
                    5.56062
                ]
            ],
            [
                [
                    3.42333,
                    0.0,
                    0.0
                ],
                [
                    -0.0,
                    5.56061,
                    -0.0
                ],
                [
                    -0.0,
                    -0.0,
                    5.56062
                ]
            ],
            [
                [
                    5.56063,
                    0.0,
                    0.0
                ],
                [
                    -0.0,
                    5.56061,
                    -0.0
                ],
                [
                    -0.0,
                    -0.0,
                    3.42335
                ]
            ],
            [
                [
                    -1.69592,
                    0.0,
                    4e-05
                ],
                [
                    -0.0,
                    -1.69592,
                    -3e-05
                ],
                [
                    -0.0,
                    -0.0,
                    -3.95958
                ]
            ],
            [
                [
                    -2.01865,
                    -5e-05,
                    0.0
                ],
                [
                    -0.0,
                    -2.07152,
                    -0.0
                ],
                [
                    -0.0,
                    0.00018,
                    -2.01865
                ]
            ],
            [
                [
                    -2.07152,
                    0.0,
                    0.0
                ],
                [
                    -4e-05,
                    -2.01866,
                    -0.0
                ],
                [
                    0.00018,
                    -0.0,
                    -2.01865
                ]
            ],
            [
                [
                    -2.07204,
                    0.0,
                    0.0
                ],
                [
                    4e-05,
                    -2.01866,
                    -0.0
                ],
                [
                    -0.00018,
                    -0.0,
                    -2.01865
                ]
            ],
            [
                [
                    -2.01865,
                    0.0,
                    5e-05
                ],
                [
                    -0.0,
                    -2.01866,
                    4e-05
                ],
                [
                    -0.0,
                    -0.0,
                    -2.07142
                ]
            ],
            [
                [
                    -2.01865,
                    5e-05,
                    0.0
                ],
                [
                    -0.0,
                    -2.07209,
                    -0.0
                ],
                [
                    -0.0,
                    -0.00018,
                    -2.01865
                ]
            ],
            [
                [
                    -2.01865,
                    0.0,
                    -5e-05
                ],
                [
                    -0.0,
                    -2.01866,
                    -4e-05
                ],
                [
                    -0.0,
                    -0.0,
                    -2.07217
                ]
            ],
            [
                [
                    -1.69592,
                    0.0,
                    -4e-05
                ],
                [
                    -0.0,
                    -1.69592,
                    3e-05
                ],
                [
                    -0.0,
                    -0.0,
                    -3.95958
                ]
            ],
            [
                [
                    -3.95966,
                    0.0,
                    0.0
                ],
                [
                    3e-05,
                    -1.69592,
                    -0.0
                ],
                [
                    -9e-05,
                    -0.0,
                    -1.69593
                ]
            ],
            [
                [
                    -3.95966,
                    0.0,
                    0.0
                ],
                [
                    -3e-05,
                    -1.69592,
                    -0.0
                ],
                [
                    9e-05,
                    -0.0,
                    -1.69593
                ]
            ],
            [
                [
                    -1.69592,
                    4e-05,
                    0.0
                ],
                [
                    -0.0,
                    -3.95963,
                    -0.0
                ],
                [
                    -0.0,
                    -9e-05,
                    -1.69593
                ]
            ],
            [
                [
                    -1.69592,
                    -4e-05,
                    0.0
                ],
                [
                    -0.0,
                    -3.95963,
                    -0.0
                ],
                [
                    -0.0,
                    9e-05,
                    -1.69593
                ]
            ]
        ]
    },
    "band_gap": 1.6411999999999995,
    "is_direct": false,
    "formula": "Ba4Li(SbO4)3"
}