{
    "mp_id": "mp-768915",
    "nelements": 3,
    "nsites": 28,
    "elements": [
        "Au",
        "Na",
        "O"
    ],
    "structure": {
        "@module": "pymatgen.core.structure",
        "@class": "Structure",
        "charge": null,
        "lattice": {
            "matrix": [
                [
                    9.35542848,
                    0.0,
                    0.0
                ],
                [
                    0.0,
                    9.35542848,
                    0.0
                ],
                [
                    0.0,
                    0.0,
                    4.45307588
                ]
            ],
            "a": 9.35542848,
            "b": 9.35542848,
            "c": 4.45307588,
            "alpha": 90.0,
            "beta": 90.0,
            "gamma": 90.0,
            "volume": 389.7512005480018
        },
        "sites": [
            {
                "species": [
                    {
                        "element": "Na",
                        "occu": 1
                    }
                ],
                "abc": [
                    0.62018526,
                    0.12681799,
                    0.0
                ],
                "xyz": [
                    5.802098844280205,
                    1.1864366354223552,
                    0.0
                ],
                "label": "Na",
                "properties": {}
            },
            {
                "species": [
                    {
                        "element": "Na",
                        "occu": 1
                    }
                ],
                "abc": [
                    0.62681799,
                    0.87981474,
                    0.5
                ],
                "xyz": [
                    5.864150875422356,
                    8.231043875719797,
                    2.22653794
                ],
                "label": "Na",
                "properties": {}
            },
            {
                "species": [
                    {
                        "element": "Na",
                        "occu": 1
                    }
                ],
                "abc": [
                    0.64693688,
                    0.35306312,
                    0.5
                ],
                "xyz": [
                    6.052371711914343,
                    3.303056768085658,
                    2.22653794
                ],
                "label": "Na",
                "properties": {}
            },
            {
                "species": [
                    {
                        "element": "Na",
                        "occu": 1
                    }
                ],
                "abc": [
                    0.85306312,
                    0.85306312,
                    0.0
                ],
                "xyz": [
                    7.980771008085657,
                    7.980771008085657,
                    0.0
                ],
                "label": "Na",
                "properties": {}
            },
            {
                "species": [
                    {
                        "element": "Na",
                        "occu": 1
                    }
                ],
                "abc": [
                    0.87318201,
                    0.37981474,
                    0.0
                ],
                "xyz": [
                    8.168991844577645,
                    3.553329635719795,
                    0.0
                ],
                "label": "Na",
                "properties": {}
            },
            {
                "species": [
                    {
                        "element": "Na",
                        "occu": 1
                    }
                ],
                "abc": [
                    0.87981474,
                    0.62681799,
                    0.5
                ],
                "xyz": [
                    8.231043875719797,
                    5.864150875422356,
                    2.22653794
                ],
                "label": "Na",
                "properties": {}
            },
            {
                "species": [
                    {
                        "element": "Na",
                        "occu": 1
                    }
                ],
                "abc": [
                    0.12018526,
                    0.37318201,
                    0.5
                ],
                "xyz": [
                    1.1243846042802048,
                    3.491277604577645,
                    2.22653794
                ],
                "label": "Na",
                "properties": {}
            },
            {
                "species": [
                    {
                        "element": "Na",
                        "occu": 1
                    }
                ],
                "abc": [
                    0.12681799,
                    0.62018526,
                    0.0
                ],
                "xyz": [
                    1.1864366354223552,
                    5.802098844280205,
                    0.0
                ],
                "label": "Na",
                "properties": {}
            },
            {
                "species": [
                    {
                        "element": "Na",
                        "occu": 1
                    }
                ],
                "abc": [
                    0.14693688,
                    0.14693688,
                    0.0
                ],
                "xyz": [
                    1.3746574719143423,
                    1.3746574719143423,
                    0.0
                ],
                "label": "Na",
                "properties": {}
            },
            {
                "species": [
                    {
                        "element": "Na",
                        "occu": 1
                    }
                ],
                "abc": [
                    0.35306312,
                    0.64693688,
                    0.5
                ],
                "xyz": [
                    3.303056768085658,
                    6.052371711914343,
                    2.22653794
                ],
                "label": "Na",
                "properties": {}
            },
            {
                "species": [
                    {
                        "element": "Na",
                        "occu": 1
                    }
                ],
                "abc": [
                    0.37318201,
                    0.12018526,
                    0.5
                ],
                "xyz": [
                    3.491277604577645,
                    1.1243846042802048,
                    2.22653794
                ],
                "label": "Na",
                "properties": {}
            },
            {
                "species": [
                    {
                        "element": "Na",
                        "occu": 1
                    }
                ],
                "abc": [
                    0.37981474,
                    0.87318201,
                    0.0
                ],
                "xyz": [
                    3.553329635719795,
                    8.168991844577645,
                    0.0
                ],
                "label": "Na",
                "properties": {}
            },
            {
                "species": [
                    {
                        "element": "Au",
                        "occu": 1
                    }
                ],
                "abc": [
                    0.6160865,
                    0.6160865,
                    0.0
                ],
                "xyz": [
                    5.76375318824352,
                    5.76375318824352,
                    0.0
                ],
                "label": "Au",
                "properties": {}
            },
            {
                "species": [
                    {
                        "element": "Au",
                        "occu": 1
                    }
                ],
                "abc": [
                    0.8839135,
                    0.1160865,
                    0.5
                ],
                "xyz": [
                    8.269389531756481,
                    1.08603894824352,
                    2.22653794
                ],
                "label": "Au",
                "properties": {}
            },
            {
                "species": [
                    {
                        "element": "Au",
                        "occu": 1
                    }
                ],
                "abc": [
                    0.1160865,
                    0.8839135,
                    0.5
                ],
                "xyz": [
                    1.08603894824352,
                    8.269389531756481,
                    2.22653794
                ],
                "label": "Au",
                "properties": {}
            },
            {
                "species": [
                    {
                        "element": "Au",
                        "occu": 1
                    }
                ],
                "abc": [
                    0.3839135,
                    0.3839135,
                    0.0
                ],
                "xyz": [
                    3.5916752917564803,
                    3.5916752917564803,
                    0.0
                ],
                "label": "Au",
                "properties": {}
            },
            {
                "species": [
                    {
                        "element": "O",
                        "occu": 1
                    }
                ],
                "abc": [
                    0.60248913,
                    0.39751087,
                    0.0
                ],
                "xyz": [
                    5.636543965692423,
                    3.718884514307578,
                    0.0
                ],
                "label": "O",
                "properties": {}
            },
            {
                "species": [
                    {
                        "element": "O",
                        "occu": 1
                    }
                ],
                "abc": [
                    0.61446394,
                    0.82754959,
                    0.0
                ],
                "xyz": [
                    5.748573444209012,
                    7.742081002898323,
                    0.0
                ],
                "label": "O",
                "properties": {}
            },
            {
                "species": [
                    {
                        "element": "O",
                        "occu": 1
                    }
                ],
                "abc": [
                    0.67245041,
                    0.11446394,
                    0.5
                ],
                "xyz": [
                    6.291061717101678,
                    1.0708592042090113,
                    2.22653794
                ],
                "label": "O",
                "properties": {}
            },
            {
                "species": [
                    {
                        "element": "O",
                        "occu": 1
                    }
                ],
                "abc": [
                    0.82754959,
                    0.61446394,
                    0.0
                ],
                "xyz": [
                    7.742081002898323,
                    5.748573444209012,
                    0.0
                ],
                "label": "O",
                "properties": {}
            },
            {
                "species": [
                    {
                        "element": "O",
                        "occu": 1
                    }
                ],
                "abc": [
                    0.88553606,
                    0.32754959,
                    0.5
                ],
                "xyz": [
                    8.28456927579099,
                    3.0643667628983233,
                    2.22653794
                ],
                "label": "O",
                "properties": {}
            },
            {
                "species": [
                    {
                        "element": "O",
                        "occu": 1
                    }
                ],
                "abc": [
                    0.89751087,
                    0.89751087,
                    0.5
                ],
                "xyz": [
                    8.396598754307577,
                    8.396598754307577,
                    2.22653794
                ],
                "label": "O",
                "properties": {}
            },
            {
                "species": [
                    {
                        "element": "O",
                        "occu": 1
                    }
                ],
                "abc": [
                    0.10248913,
                    0.10248913,
                    0.5
                ],
                "xyz": [
                    0.9588297256924224,
                    0.9588297256924224,
                    2.22653794
                ],
                "label": "O",
                "properties": {}
            },
            {
                "species": [
                    {
                        "element": "O",
                        "occu": 1
                    }
                ],
                "abc": [
                    0.11446394,
                    0.67245041,
                    0.5
                ],
                "xyz": [
                    1.0708592042090113,
                    6.291061717101678,
                    2.22653794
                ],
                "label": "O",
                "properties": {}
            },
            {
                "species": [
                    {
                        "element": "O",
                        "occu": 1
                    }
                ],
                "abc": [
                    0.17245041,
                    0.38553606,
                    0.0
                ],
                "xyz": [
                    1.613347477101677,
                    3.606855035790989,
                    0.0
                ],
                "label": "O",
                "properties": {}
            },
            {
                "species": [
                    {
                        "element": "O",
                        "occu": 1
                    }
                ],
                "abc": [
                    0.32754959,
                    0.88553606,
                    0.5
                ],
                "xyz": [
                    3.0643667628983233,
                    8.28456927579099,
                    2.22653794
                ],
                "label": "O",
                "properties": {}
            },
            {
                "species": [
                    {
                        "element": "O",
                        "occu": 1
                    }
                ],
                "abc": [
                    0.38553606,
                    0.17245041,
                    0.0
                ],
                "xyz": [
                    3.606855035790989,
                    1.613347477101677,
                    0.0
                ],
                "label": "O",
                "properties": {}
            },
            {
                "species": [
                    {
                        "element": "O",
                        "occu": 1
                    }
                ],
                "abc": [
                    0.39751087,
                    0.60248913,
                    0.0
                ],
                "xyz": [
                    3.718884514307578,
                    5.636543965692423,
                    0.0
                ],
                "label": "O",
                "properties": {}
            }
        ]
    },
    "spacegroup": {
        "source": "spglib",
        "symbol": "P4_2/mnm",
        "number": 136,
        "point_group": "4/mmm",
        "crystal_system": "tetragonal",
        "hall": "-P 4n 2n"
    },
    "dielectric": {
        "epsilon_ionic": [
            [
                23.48860088,
                -1.4e-07,
                -0.0
            ],
            [
                -1.4e-07,
                23.48867562,
                -0.0
            ],
            [
                -0.0,
                -0.0,
                1.51668664
            ]
        ],
        "epsilon_ionic_avg": 16.16465438,
        "epsilon_ionic_eig": [
            23.48860087973776,
            23.48867562026224,
            1.51668664
        ],
        "epsilon_electronic": [
            [
                4.04418302,
                0.0,
                0.0
            ],
            [
                0.0,
                4.04418302,
                0.0
            ],
            [
                0.0,
                0.0,
                2.74647468
            ]
        ],
        "epsilon_electronic_avg": 3.6116135733333334,
        "epsilon_electronic_eig": [
            4.04418302,
            4.04418302,
            2.74647468
        ]
    },
    "phonon": {
        "lowest_freq": -0.06513471897974135,
        "frequency": [
            -0.06513471897974135,
            -0.06513471897974135,
            -0.028577058243120266,
            1.4025880718381223,
            1.4025880718381223,
            1.812374182553826,
            2.08888067041118,
            2.08888067041118,
            2.128681630456693,
            2.128681630456693,
            2.2696873858895823,
            2.4135173948324153,
            2.5582720012701734,
            2.9599294909202807,
            3.28082757141528,
            3.344552341481898,
            3.344552341481898,
            3.604680016652538,
            3.655593416295959,
            3.815555424815222,
            3.815555424815222,
            4.118191813173266,
            4.346234830841247,
            4.384261023495283,
            4.384261023495283,
            4.408005000940887,
            4.418349155104875,
            4.418349155104875,
            5.0109336108458855,
            5.013135756846732,
            5.188997136033479,
            5.793321675228112,
            5.8391418693231865,
            6.008149491081776,
            6.008149491081776,
            6.064812522992581,
            6.214469877088503,
            6.214469877088503,
            6.62765457393251,
            6.741960479560339,
            6.741960479560339,
            6.897464398087669,
            7.144888134492339,
            7.212438050501858,
            7.256939098833459,
            7.364697331475236,
            7.364697331475236,
            8.083085588770388,
            9.854849845698352,
            9.867627219629428,
            9.867627219629428,
            10.011966311257641,
            10.354776875616807,
            10.597831730175294,
            10.607639961789491,
            10.607639961789491,
            10.968068756197486,
            11.000440154297848,
            11.000440154297848,
            11.084900163003091,
            11.084900163003091,
            11.24407611607967,
            11.363660016208645,
            11.417927611400653,
            12.6445218787918,
            12.76037074362167,
            12.76037074362167,
            12.871840560631183,
            14.60977386861695,
            14.771760396562053,
            15.05409193954955,
            15.05409193954955,
            15.55082621365749,
            15.900002876526719,
            16.077288384863078,
            16.077288384863078,
            16.132825974019475,
            16.552930690240714,
            16.552930690240714,
            17.092937174928863,
            17.092937174928863,
            17.569039833416333,
            17.745342507152024,
            17.798001929054177
        ]
    },
    "born_effective_charge": {
        "avg_abs_trace": 1.2625821428571429,
        "tensors": [
            [
                [
                    0.97823,
                    -0.03433,
                    0.0
                ],
                [
                    -0.28414,
                    1.37552,
                    0.0
                ],
                [
                    -4e-05,
                    2e-05,
                    0.95363
                ]
            ],
            [
                [
                    1.37552,
                    0.28414,
                    0.0
                ],
                [
                    0.03435,
                    0.97824,
                    0.0
                ],
                [
                    2e-05,
                    4e-05,
                    0.95363
                ]
            ],
            [
                [
                    0.93974,
                    -0.31711,
                    0.0
                ],
                [
                    -0.31709,
                    0.93972,
                    0.0
                ],
                [
                    1e-05,
                    -1e-05,
                    1.06298
                ]
            ],
            [
                [
                    0.93972,
                    0.31709,
                    0.0
                ],
                [
                    0.31709,
                    0.93972,
                    0.0
                ],
                [
                    -1e-05,
                    -1e-05,
                    1.06298
                ]
            ],
            [
                [
                    1.3756,
                    -0.28407,
                    0.0
                ],
                [
                    -0.03435,
                    0.97824,
                    0.0
                ],
                [
                    -2e-05,
                    4e-05,
                    0.95363
                ]
            ],
            [
                [
                    0.97824,
                    0.03435,
                    0.0
                ],
                [
                    0.28414,
                    1.37552,
                    0.0
                ],
                [
                    4e-05,
                    2e-05,
                    0.95363
                ]
            ],
            [
                [
                    0.97823,
                    0.03433,
                    0.0
                ],
                [
                    0.28407,
                    1.3756,
                    0.0
                ],
                [
                    -4e-05,
                    -2e-05,
                    0.95363
                ]
            ],
            [
                [
                    1.37552,
                    -0.28414,
                    0.0
                ],
                [
                    -0.03433,
                    0.97823,
                    0.0
                ],
                [
                    2e-05,
                    -4e-05,
                    0.95363
                ]
            ],
            [
                [
                    0.93974,
                    0.31711,
                    0.0
                ],
                [
                    0.31711,
                    0.93974,
                    0.0
                ],
                [
                    1e-05,
                    1e-05,
                    1.06298
                ]
            ],
            [
                [
                    0.93972,
                    -0.31709,
                    0.0
                ],
                [
                    -0.31711,
                    0.93974,
                    0.0
                ],
                [
                    -1e-05,
                    1e-05,
                    1.06298
                ]
            ],
            [
                [
                    1.3756,
                    0.28407,
                    0.0
                ],
                [
                    0.03433,
                    0.97823,
                    0.0
                ],
                [
                    -2e-05,
                    -4e-05,
                    0.95363
                ]
            ],
            [
                [
                    0.97824,
                    -0.03435,
                    0.0
                ],
                [
                    -0.28407,
                    1.3756,
                    0.0
                ],
                [
                    4e-05,
                    -2e-05,
                    0.95363
                ]
            ],
            [
                [
                    2.13079,
                    0.63087,
                    0.0
                ],
                [
                    0.63091,
                    2.1308,
                    0.0
                ],
                [
                    2e-05,
                    2e-05,
                    -0.56179
                ]
            ],
            [
                [
                    2.13081,
                    -0.6311,
                    0.0
                ],
                [
                    -0.63091,
                    2.1308,
                    0.0
                ],
                [
                    -2e-05,
                    2e-05,
                    -0.56179
                ]
            ],
            [
                [
                    2.13079,
                    -0.63087,
                    0.0
                ],
                [
                    -0.63114,
                    2.13083,
                    0.0
                ],
                [
                    2e-05,
                    -2e-05,
                    -0.56179
                ]
            ],
            [
                [
                    2.13081,
                    0.6311,
                    0.0
                ],
                [
                    0.63114,
                    2.13083,
                    0.0
                ],
                [
                    -2e-05,
                    -2e-05,
                    -0.56179
                ]
            ],
            [
                [
                    -1.89505,
                    -0.21062,
                    0.0
                ],
                [
                    -0.2105,
                    -1.89511,
                    0.0
                ],
                [
                    -8e-05,
                    8e-05,
                    -0.49583
                ]
            ],
            [
                [
                    -1.07087,
                    -0.39511,
                    0.0
                ],
                [
                    -0.0084,
                    -2.45787,
                    0.0
                ],
                [
                    -3e-05,
                    -0.00017,
                    -0.95631
                ]
            ],
            [
                [
                    -2.45813,
                    0.00817,
                    0.0
                ],
                [
                    0.39512,
                    -1.07086,
                    0.0
                ],
                [
                    0.00017,
                    -3e-05,
                    -0.95631
                ]
            ],
            [
                [
                    -2.45786,
                    -0.0084,
                    0.0
                ],
                [
                    -0.39512,
                    -1.07086,
                    0.0
                ],
                [
                    -0.00017,
                    -3e-05,
                    -0.95631
                ]
            ],
            [
                [
                    -1.07164,
                    0.3948,
                    0.0
                ],
                [
                    0.0084,
                    -2.45787,
                    0.0
                ],
                [
                    3e-05,
                    -0.00017,
                    -0.95631
                ]
            ],
            [
                [
                    -1.89509,
                    0.21053,
                    0.0
                ],
                [
                    0.2105,
                    -1.89511,
                    0.0
                ],
                [
                    8e-05,
                    8e-05,
                    -0.49583
                ]
            ],
            [
                [
                    -1.89505,
                    0.21062,
                    0.0
                ],
                [
                    0.21061,
                    -1.89507,
                    0.0
                ],
                [
                    -8e-05,
                    -8e-05,
                    -0.49583
                ]
            ],
            [
                [
                    -1.07087,
                    0.39511,
                    0.0
                ],
                [
                    0.00817,
                    -2.45814,
                    0.0
                ],
                [
                    -3e-05,
                    0.00017,
                    -0.95631
                ]
            ],
            [
                [
                    -2.45813,
                    -0.00817,
                    0.0
                ],
                [
                    -0.39481,
                    -1.07163,
                    0.0
                ],
                [
                    0.00017,
                    3e-05,
                    -0.95631
                ]
            ],
            [
                [
                    -2.45786,
                    0.0084,
                    0.0
                ],
                [
                    0.39481,
                    -1.07163,
                    0.0
                ],
                [
                    -0.00017,
                    3e-05,
                    -0.95631
                ]
            ],
            [
                [
                    -1.07164,
                    -0.3948,
                    0.0
                ],
                [
                    -0.00817,
                    -2.45814,
                    0.0
                ],
                [
                    3e-05,
                    0.00017,
                    -0.95631
                ]
            ],
            [
                [
                    -1.89509,
                    -0.21053,
                    0.0
                ],
                [
                    -0.21061,
                    -1.89507,
                    0.0
                ],
                [
                    8e-05,
                    -8e-05,
                    -0.49583
                ]
            ]
        ]
    },
    "band_gap": 2.1915999999999998,
    "is_direct": false,
    "formula": "Na3AuO3"
}