{
    "mp_id": "mp-8830",
    "nelements": 3,
    "nsites": 4,
    "elements": [
        "Na",
        "O",
        "Rh"
    ],
    "structure": {
        "@module": "pymatgen.core.structure",
        "@class": "Structure",
        "charge": null,
        "lattice": {
            "matrix": [
                [
                    1.54208186,
                    0.89032184,
                    5.06571528
                ],
                [
                    -1.54208186,
                    0.89032184,
                    5.06571528
                ],
                [
                    0.0,
                    -1.78064367,
                    5.06571528
                ]
            ],
            "a": 5.369558709963745,
            "b": 5.369558709963745,
            "c": 5.369558936964613,
            "alpha": 33.37957453458395,
            "beta": 33.37957453458395,
            "gamma": 33.37956195668474,
            "volume": 41.72981704500659
        },
        "sites": [
            {
                "species": [
                    {
                        "element": "Na",
                        "occu": 1
                    }
                ],
                "abc": [
                    0.0,
                    0.0,
                    0.0
                ],
                "xyz": [
                    0.0,
                    0.0,
                    0.0
                ],
                "label": "Na",
                "properties": {}
            },
            {
                "species": [
                    {
                        "element": "Rh",
                        "occu": 1
                    }
                ],
                "abc": [
                    0.5,
                    0.5,
                    0.5
                ],
                "xyz": [
                    0.0,
                    5.000000080634948e-09,
                    7.5985729200000005
                ],
                "label": "Rh",
                "properties": {}
            },
            {
                "species": [
                    {
                        "element": "O",
                        "occu": 1
                    }
                ],
                "abc": [
                    0.76573372,
                    0.76573372,
                    0.76573372
                ],
                "xyz": [
                    0.0,
                    7.657337208755166e-09,
                    11.636967017445723
                ],
                "label": "O",
                "properties": {}
            },
            {
                "species": [
                    {
                        "element": "O",
                        "occu": 1
                    }
                ],
                "abc": [
                    0.23426628,
                    0.23426628,
                    0.23426628
                ],
                "xyz": [
                    0.0,
                    2.3426628414924267e-09,
                    3.560178822554275
                ],
                "label": "O",
                "properties": {}
            }
        ]
    },
    "spacegroup": {
        "source": "spglib",
        "symbol": "R-3m",
        "number": 166,
        "point_group": "-3m",
        "crystal_system": "trigonal",
        "hall": "-R 3 2\""
    },
    "dielectric": {
        "epsilon_ionic": [
            [
                3.5230953,
                0.0,
                -1e-08
            ],
            [
                0.0,
                3.52304377,
                1.99e-06
            ],
            [
                -1e-08,
                1.99e-06,
                2.52631202
            ]
        ],
        "epsilon_ionic_avg": 3.1908170300000003,
        "epsilon_ionic_eig": [
            2.526312019996027,
            3.5230953000000014,
            3.523043770003974
        ],
        "epsilon_electronic": [
            [
                6.52135607,
                0.0,
                0.0
            ],
            [
                0.0,
                6.52135913,
                2.2e-07
            ],
            [
                -0.0,
                2.2e-07,
                3.4155269
            ]
        ],
        "epsilon_electronic_avg": 5.4860807,
        "epsilon_electronic_eig": [
            3.4155268999999846,
            6.5213591300000155,
            6.52135607
        ]
    },
    "phonon": {
        "lowest_freq": -0.003962600322221275,
        "frequency": [
            -0.003962600322221275,
            -0.0015732683821632126,
            -0.001573268017101293,
            5.522631580353171,
            5.52263286372739,
            7.8767876677800395,
            15.001261717954723,
            15.001265237020197,
            15.434748993919037,
            15.644626648714791,
            15.929123149375569,
            15.92912683168904
        ]
    },
    "born_effective_charge": {
        "avg_abs_trace": 1.7746324999999998,
        "tensors": [
            [
                [
                    0.96873,
                    -0.0,
                    -0.0
                ],
                [
                    0.0,
                    0.96873,
                    0.0
                ],
                [
                    -0.0,
                    0.0,
                    1.52326
                ]
            ],
            [
                [
                    3.24102,
                    0.0,
                    -0.0
                ],
                [
                    0.0,
                    3.24098,
                    -0.0
                ],
                [
                    -0.0,
                    -0.0,
                    0.70507
                ]
            ],
            [
                [
                    -2.10488,
                    -0.0004,
                    -0.00052
                ],
                [
                    0.0,
                    -2.10486,
                    -1e-05
                ],
                [
                    0.0,
                    -0.0,
                    -1.11412
                ]
            ],
            [
                [
                    -2.10488,
                    0.0004,
                    0.00052
                ],
                [
                    0.0,
                    -2.10485,
                    1e-05
                ],
                [
                    0.0,
                    -0.0,
                    -1.11421
                ]
            ]
        ]
    },
    "band_gap": 2.1972999999999994,
    "is_direct": false,
    "formula": "NaRhO2"
}