{
    "mp_id": "mp-8076",
    "nelements": 3,
    "nsites": 28,
    "elements": [
        "Na",
        "O",
        "Sb"
    ],
    "structure": {
        "@module": "pymatgen.core.structure",
        "@class": "Structure",
        "charge": null,
        "lattice": {
            "matrix": [
                [
                    -4.69708212,
                    4.69708212,
                    4.69708212
                ],
                [
                    4.69708212,
                    -4.69708212,
                    4.69708212
                ],
                [
                    4.69708212,
                    4.69708212,
                    -4.69708212
                ]
            ],
            "a": 8.135584879163334,
            "b": 8.135584879163334,
            "c": 8.135584879163334,
            "alpha": 109.47122063449069,
            "beta": 109.47122063449069,
            "gamma": 109.47122063449069,
            "volume": 414.5190084611648
        },
        "sites": [
            {
                "species": [
                    {
                        "element": "Na",
                        "occu": 1
                    }
                ],
                "abc": [
                    0.24512955,
                    0.72498456,
                    0.72498456
                ],
                "xyz": [
                    5.659230401715488,
                    1.151393626388646,
                    1.1513936263886455
                ],
                "label": "Na",
                "properties": {}
            },
            {
                "species": [
                    {
                        "element": "Na",
                        "occu": 1
                    }
                ],
                "abc": [
                    0.72498456,
                    0.72498456,
                    0.24512955
                ],
                "xyz": [
                    1.151393626388646,
                    1.151393626388646,
                    5.659230401715488
                ],
                "label": "Na",
                "properties": {}
            },
            {
                "species": [
                    {
                        "element": "Na",
                        "occu": 1
                    }
                ],
                "abc": [
                    0.72498456,
                    0.24512955,
                    0.72498456
                ],
                "xyz": [
                    1.151393626388646,
                    5.659230401715488,
                    1.1513936263886455
                ],
                "label": "Na",
                "properties": {}
            },
            {
                "species": [
                    {
                        "element": "Na",
                        "occu": 1
                    }
                ],
                "abc": [
                    0.0,
                    0.520144,
                    0.27501544
                ],
                "xyz": [
                    3.734929188173213,
                    -1.1513889762773477,
                    1.1513889762773477
                ],
                "label": "Na",
                "properties": {}
            },
            {
                "species": [
                    {
                        "element": "Na",
                        "occu": 1
                    }
                ],
                "abc": [
                    0.0,
                    0.27501544,
                    0.520144
                ],
                "xyz": [
                    3.734929188173213,
                    1.1513889762773477,
                    -1.1513889762773477
                ],
                "label": "Na",
                "properties": {}
            },
            {
                "species": [
                    {
                        "element": "Na",
                        "occu": 1
                    }
                ],
                "abc": [
                    0.75487045,
                    0.479856,
                    0.479856
                ],
                "xyz": [
                    0.9621575819380861,
                    3.545688493611354,
                    3.545688493611354
                ],
                "label": "Na",
                "properties": {}
            },
            {
                "species": [
                    {
                        "element": "Na",
                        "occu": 1
                    }
                ],
                "abc": [
                    0.479856,
                    0.479856,
                    0.75487045
                ],
                "xyz": [
                    3.545688493611354,
                    3.545688493611354,
                    0.9621575819380861
                ],
                "label": "Na",
                "properties": {}
            },
            {
                "species": [
                    {
                        "element": "Na",
                        "occu": 1
                    }
                ],
                "abc": [
                    0.520144,
                    0.27501544,
                    0.0
                ],
                "xyz": [
                    -1.1513889762773477,
                    1.1513889762773477,
                    3.734929188173213
                ],
                "label": "Na",
                "properties": {}
            },
            {
                "species": [
                    {
                        "element": "Na",
                        "occu": 1
                    }
                ],
                "abc": [
                    0.27501544,
                    0.0,
                    0.520144
                ],
                "xyz": [
                    1.1513889762773477,
                    3.734929188173213,
                    -1.1513889762773477
                ],
                "label": "Na",
                "properties": {}
            },
            {
                "species": [
                    {
                        "element": "Na",
                        "occu": 1
                    }
                ],
                "abc": [
                    0.520144,
                    0.0,
                    0.27501544
                ],
                "xyz": [
                    -1.1513889762773477,
                    3.734929188173213,
                    1.1513889762773477
                ],
                "label": "Na",
                "properties": {}
            },
            {
                "species": [
                    {
                        "element": "Na",
                        "occu": 1
                    }
                ],
                "abc": [
                    0.479856,
                    0.75487045,
                    0.479856
                ],
                "xyz": [
                    3.545688493611354,
                    0.9621575819380861,
                    3.545688493611354
                ],
                "label": "Na",
                "properties": {}
            },
            {
                "species": [
                    {
                        "element": "Na",
                        "occu": 1
                    }
                ],
                "abc": [
                    0.27501544,
                    0.520144,
                    0.0
                ],
                "xyz": [
                    1.1513889762773477,
                    -1.1513889762773477,
                    3.734929188173213
                ],
                "label": "Na",
                "properties": {}
            },
            {
                "species": [
                    {
                        "element": "Sb",
                        "occu": 1
                    }
                ],
                "abc": [
                    0.0,
                    0.71442132,
                    0.0
                ],
                "xyz": [
                    3.3556956083187988,
                    -3.3556956083187988,
                    3.3556956083187988
                ],
                "label": "Sb",
                "properties": {}
            },
            {
                "species": [
                    {
                        "element": "Sb",
                        "occu": 1
                    }
                ],
                "abc": [
                    0.0,
                    0.0,
                    0.71442132
                ],
                "xyz": [
                    3.3556956083187988,
                    3.3556956083187988,
                    -3.3556956083187988
                ],
                "label": "Sb",
                "properties": {}
            },
            {
                "species": [
                    {
                        "element": "Sb",
                        "occu": 1
                    }
                ],
                "abc": [
                    0.28557868,
                    0.28557868,
                    0.28557868
                ],
                "xyz": [
                    1.3413865116812016,
                    1.3413865116812016,
                    1.3413865116812016
                ],
                "label": "Sb",
                "properties": {}
            },
            {
                "species": [
                    {
                        "element": "Sb",
                        "occu": 1
                    }
                ],
                "abc": [
                    0.71442132,
                    0.0,
                    0.0
                ],
                "xyz": [
                    -3.3556956083187988,
                    3.3556956083187988,
                    3.3556956083187988
                ],
                "label": "Sb",
                "properties": {}
            },
            {
                "species": [
                    {
                        "element": "O",
                        "occu": 1
                    }
                ],
                "abc": [
                    0.4803846,
                    0.25711964,
                    0.4803846
                ],
                "xyz": [
                    1.2077120637448369,
                    3.3050997670218676,
                    1.2077120637448369
                ],
                "label": "O",
                "properties": {}
            },
            {
                "species": [
                    {
                        "element": "O",
                        "occu": 1
                    }
                ],
                "abc": [
                    0.25711964,
                    0.4803846,
                    0.4803846
                ],
                "xyz": [
                    3.3050997670218676,
                    1.2077120637448369,
                    1.2077120637448369
                ],
                "label": "O",
                "properties": {}
            },
            {
                "species": [
                    {
                        "element": "O",
                        "occu": 1
                    }
                ],
                "abc": [
                    0.4803846,
                    0.4803846,
                    0.25711964
                ],
                "xyz": [
                    1.2077120637448369,
                    1.2077120637448369,
                    3.3050997670218676
                ],
                "label": "O",
                "properties": {}
            },
            {
                "species": [
                    {
                        "element": "O",
                        "occu": 1
                    }
                ],
                "abc": [
                    0.5196154,
                    0.77673503,
                    0.0
                ],
                "xyz": [
                    1.2077120167740159,
                    -1.2077120167740159,
                    6.089064426007312
                ],
                "label": "O",
                "properties": {}
            },
            {
                "species": [
                    {
                        "element": "O",
                        "occu": 1
                    }
                ],
                "abc": [
                    0.77673503,
                    0.0,
                    0.5196154
                ],
                "xyz": [
                    -1.2077120167740159,
                    6.089064426007312,
                    1.2077120167740159
                ],
                "label": "O",
                "properties": {}
            },
            {
                "species": [
                    {
                        "element": "O",
                        "occu": 1
                    }
                ],
                "abc": [
                    0.5196154,
                    0.0,
                    0.77673503
                ],
                "xyz": [
                    1.2077120167740159,
                    6.089064426007312,
                    -1.2077120167740159
                ],
                "label": "O",
                "properties": {}
            },
            {
                "species": [
                    {
                        "element": "O",
                        "occu": 1
                    }
                ],
                "abc": [
                    0.22326497,
                    0.74288036,
                    0.22326497
                ],
                "xyz": [
                    3.4893700562551633,
                    -1.3919822590364905,
                    3.4893700562551633
                ],
                "label": "O",
                "properties": {}
            },
            {
                "species": [
                    {
                        "element": "O",
                        "occu": 1
                    }
                ],
                "abc": [
                    0.77673503,
                    0.5196154,
                    0.0
                ],
                "xyz": [
                    -1.2077120167740159,
                    1.2077120167740159,
                    6.089064426007312
                ],
                "label": "O",
                "properties": {}
            },
            {
                "species": [
                    {
                        "element": "O",
                        "occu": 1
                    }
                ],
                "abc": [
                    0.0,
                    0.5196154,
                    0.77673503
                ],
                "xyz": [
                    6.089064426007312,
                    1.2077120167740159,
                    -1.2077120167740159
                ],
                "label": "O",
                "properties": {}
            },
            {
                "species": [
                    {
                        "element": "O",
                        "occu": 1
                    }
                ],
                "abc": [
                    0.22326497,
                    0.22326497,
                    0.74288036
                ],
                "xyz": [
                    3.4893700562551633,
                    3.4893700562551633,
                    -1.3919822590364905
                ],
                "label": "O",
                "properties": {}
            },
            {
                "species": [
                    {
                        "element": "O",
                        "occu": 1
                    }
                ],
                "abc": [
                    0.74288036,
                    0.22326497,
                    0.22326497
                ],
                "xyz": [
                    -1.3919822590364905,
                    3.4893700562551633,
                    3.4893700562551633
                ],
                "label": "O",
                "properties": {}
            },
            {
                "species": [
                    {
                        "element": "O",
                        "occu": 1
                    }
                ],
                "abc": [
                    0.0,
                    0.77673503,
                    0.5196154
                ],
                "xyz": [
                    6.089064426007312,
                    -1.2077120167740159,
                    1.2077120167740159
                ],
                "label": "O",
                "properties": {}
            }
        ]
    },
    "spacegroup": {
        "source": "spglib",
        "symbol": "I-43m",
        "number": 217,
        "point_group": "-43m",
        "crystal_system": "cubic",
        "hall": "I -4 2 3"
    },
    "dielectric": {
        "epsilon_ionic": [
            [
                3.35351547,
                2e-08,
                -2e-08
            ],
            [
                2e-08,
                3.35383914,
                0.0
            ],
            [
                -2e-08,
                0.0,
                3.35355689
            ]
        ],
        "epsilon_ionic_avg": 3.353637166666666,
        "epsilon_ionic_eig": [
            3.353515469989107,
            3.353839140001235,
            3.353556890009657
        ],
        "epsilon_electronic": [
            [
                3.45151945,
                0.0,
                0.0
            ],
            [
                0.0,
                3.45151945,
                0.0
            ],
            [
                -0.0,
                -0.0,
                3.45151945
            ]
        ],
        "epsilon_electronic_avg": 3.4515194500000006,
        "epsilon_electronic_eig": [
            3.45151945,
            3.45151945,
            3.45151945
        ]
    },
    "phonon": {
        "lowest_freq": -0.06549353545972683,
        "frequency": [
            -0.06549353545972683,
            -0.06549353545972683,
            -0.06549353545972683,
            2.7172534839961995,
            2.7172534839961995,
            2.7172534839961995,
            3.059921180374235,
            3.059921180374235,
            3.059921180374235,
            3.1255797175715796,
            3.1255797175715796,
            3.2402034896200678,
            4.424958209150063,
            4.424958209150063,
            4.424958209150063,
            4.5225915241685275,
            4.5225915241685275,
            4.5225915241685275,
            4.8718946655772895,
            4.8718946655772895,
            4.8718946655772895,
            4.913171127484667,
            5.044076156671842,
            5.044076156671842,
            5.044076156671842,
            5.213109843907056,
            5.213109843907056,
            5.70907360666952,
            5.70907360666952,
            5.70907360666952,
            5.727974822065432,
            5.727974822065432,
            5.727974822065432,
            5.936719891790331,
            6.09395035470075,
            6.09395035470075,
            6.09395035470075,
            6.215285674423432,
            6.215285674423432,
            6.215285674423432,
            6.52860486565312,
            6.905443461394081,
            6.905443461394081,
            6.905443461394081,
            7.163973119132792,
            7.163973119132792,
            7.525139763198661,
            7.525139763198661,
            7.525139763198661,
            7.685142427382757,
            7.685142427382757,
            7.788507541887316,
            7.788507541887316,
            7.788507541887316,
            7.967633504981979,
            8.020238455854734,
            8.020238455854734,
            8.020238455854734,
            8.420965735378825,
            8.420965735378825,
            9.658963141733162,
            9.658963141733162,
            9.658963141733162,
            10.045390532670107,
            10.045390532670107,
            10.322596991823339,
            10.322596991823339,
            10.322596991823339,
            10.627174579709067,
            10.762660862983402,
            10.762660862983402,
            10.762660862983402,
            17.311653705537875,
            17.311653705537875,
            17.311653705537875,
            18.110757986284817,
            18.110757986284817,
            18.110757986284817,
            18.26513552540772,
            18.26513552540772,
            18.617698564161962,
            18.617698564161962,
            18.617698564161962,
            19.89991541629663
        ]
    },
    "born_effective_charge": {
        "avg_abs_trace": 1.4850433333333335,
        "tensors": [
            [
                [
                    1.19196,
                    -0.1599,
                    -0.1599
                ],
                [
                    -0.05446,
                    1.00185,
                    0.15857
                ],
                [
                    -0.05445,
                    0.15862,
                    1.00176
                ]
            ],
            [
                [
                    1.00187,
                    0.15847,
                    -0.05455
                ],
                [
                    0.15857,
                    1.00185,
                    -0.05446
                ],
                [
                    -0.1601,
                    -0.1601,
                    1.192
                ]
            ],
            [
                [
                    1.00187,
                    -0.05455,
                    0.15847
                ],
                [
                    -0.16003,
                    1.19204,
                    -0.16003
                ],
                [
                    0.15862,
                    -0.05445,
                    1.00176
                ]
            ],
            [
                [
                    1.19201,
                    -0.15994,
                    0.15994
                ],
                [
                    -0.0545,
                    1.00185,
                    -0.15862
                ],
                [
                    0.05445,
                    -0.15862,
                    1.00176
                ]
            ],
            [
                [
                    1.19201,
                    0.15994,
                    -0.15994
                ],
                [
                    0.05446,
                    1.00185,
                    -0.15857
                ],
                [
                    -0.05445,
                    -0.15861,
                    1.00181
                ]
            ],
            [
                [
                    1.19196,
                    0.1599,
                    0.1599
                ],
                [
                    0.0545,
                    1.00185,
                    0.15862
                ],
                [
                    0.05445,
                    0.15861,
                    1.00181
                ]
            ],
            [
                [
                    1.00185,
                    0.15853,
                    0.0546
                ],
                [
                    0.15862,
                    1.00185,
                    0.0545
                ],
                [
                    0.1601,
                    0.1601,
                    1.192
                ]
            ],
            [
                [
                    1.00185,
                    -0.15853,
                    -0.0546
                ],
                [
                    -0.15857,
                    1.00185,
                    0.05446
                ],
                [
                    -0.16004,
                    0.16004,
                    1.192
                ]
            ],
            [
                [
                    1.00187,
                    0.05455,
                    -0.15847
                ],
                [
                    0.16006,
                    1.19208,
                    -0.16006
                ],
                [
                    -0.15861,
                    -0.05445,
                    1.00181
                ]
            ],
            [
                [
                    1.00185,
                    -0.0546,
                    -0.15853
                ],
                [
                    -0.16006,
                    1.19208,
                    0.16006
                ],
                [
                    -0.15862,
                    0.05445,
                    1.00176
                ]
            ],
            [
                [
                    1.00185,
                    0.0546,
                    0.15853
                ],
                [
                    0.16003,
                    1.19204,
                    0.16003
                ],
                [
                    0.15861,
                    0.05445,
                    1.00181
                ]
            ],
            [
                [
                    1.00187,
                    -0.15847,
                    0.05455
                ],
                [
                    -0.15862,
                    1.00185,
                    -0.0545
                ],
                [
                    0.16004,
                    -0.16004,
                    1.192
                ]
            ],
            [
                [
                    2.00194,
                    -0.15739,
                    0.15739
                ],
                [
                    -0.15753,
                    2.00208,
                    -0.15753
                ],
                [
                    0.1577,
                    -0.1577,
                    2.00207
                ]
            ],
            [
                [
                    2.00194,
                    0.15739,
                    -0.15739
                ],
                [
                    0.1577,
                    2.00208,
                    -0.1577
                ],
                [
                    -0.15736,
                    -0.15736,
                    2.00227
                ]
            ],
            [
                [
                    2.00139,
                    0.15747,
                    0.15747
                ],
                [
                    0.15753,
                    2.00208,
                    0.15753
                ],
                [
                    0.15736,
                    0.15736,
                    2.00227
                ]
            ],
            [
                [
                    2.00139,
                    -0.15747,
                    -0.15747
                ],
                [
                    -0.1577,
                    2.00208,
                    0.1577
                ],
                [
                    -0.1577,
                    0.1577,
                    2.00207
                ]
            ],
            [
                [
                    -1.21819,
                    -0.00204,
                    -0.07882
                ],
                [
                    -0.11042,
                    -2.76134,
                    -0.11042
                ],
                [
                    -0.07896,
                    -0.00202,
                    -1.21833
                ]
            ],
            [
                [
                    -2.76122,
                    -0.11048,
                    -0.11048
                ],
                [
                    -0.00239,
                    -1.21835,
                    -0.07903
                ],
                [
                    -0.00202,
                    -0.07896,
                    -1.21833
                ]
            ],
            [
                [
                    -1.21819,
                    -0.07882,
                    -0.00204
                ],
                [
                    -0.07903,
                    -1.21835,
                    -0.00239
                ],
                [
                    -0.11043,
                    -0.11043,
                    -2.76155
                ]
            ],
            [
                [
                    -1.21819,
                    0.07882,
                    0.00204
                ],
                [
                    0.07888,
                    -1.21828,
                    -0.00242
                ],
                [
                    0.11036,
                    -0.11036,
                    -2.76087
                ]
            ],
            [
                [
                    -1.21816,
                    -0.00208,
                    0.07883
                ],
                [
                    -0.11035,
                    -2.76109,
                    0.11035
                ],
                [
                    0.07896,
                    0.00202,
                    -1.21833
                ]
            ],
            [
                [
                    -1.21819,
                    0.00204,
                    0.07882
                ],
                [
                    0.11035,
                    -2.76109,
                    -0.11035
                ],
                [
                    0.07881,
                    -0.00281,
                    -1.2182
                ]
            ],
            [
                [
                    -1.21816,
                    0.00208,
                    -0.07883
                ],
                [
                    0.11042,
                    -2.76134,
                    0.11042
                ],
                [
                    -0.07881,
                    0.00281,
                    -1.2182
                ]
            ],
            [
                [
                    -1.21816,
                    0.07883,
                    -0.00208
                ],
                [
                    0.07903,
                    -1.21835,
                    0.00239
                ],
                [
                    -0.11036,
                    0.11036,
                    -2.76087
                ]
            ],
            [
                [
                    -2.76083,
                    0.11023,
                    -0.11023
                ],
                [
                    0.00239,
                    -1.21835,
                    0.07903
                ],
                [
                    -0.00281,
                    0.07881,
                    -1.2182
                ]
            ],
            [
                [
                    -1.21816,
                    -0.07883,
                    0.00208
                ],
                [
                    -0.07888,
                    -1.21828,
                    0.00242
                ],
                [
                    0.11043,
                    0.11043,
                    -2.76155
                ]
            ],
            [
                [
                    -2.76122,
                    0.11048,
                    0.11048
                ],
                [
                    0.00242,
                    -1.21828,
                    -0.07888
                ],
                [
                    0.00281,
                    -0.07881,
                    -1.2182
                ]
            ],
            [
                [
                    -2.76083,
                    -0.11023,
                    0.11023
                ],
                [
                    -0.00242,
                    -1.21828,
                    0.07888
                ],
                [
                    0.00202,
                    0.07896,
                    -1.21833
                ]
            ]
        ]
    },
    "band_gap": 3.0227999999999997,
    "is_direct": false,
    "formula": "Na3SbO3"
}