{
    "mp_id": "mp-8610",
    "nelements": 3,
    "nsites": 15,
    "elements": [
        "Li",
        "O",
        "Pt"
    ],
    "structure": {
        "@module": "pymatgen.core.structure",
        "@class": "Structure",
        "charge": null,
        "lattice": {
            "matrix": [
                [
                    2.70271951,
                    1.56041168,
                    4.97049546
                ],
                [
                    -2.70271594,
                    1.56041788,
                    4.97049546
                ],
                [
                    -3.58e-06,
                    -3.12082956,
                    4.97049546
                ]
            ],
            "a": 5.869020572352398,
            "b": 5.86902057676018,
            "c": 5.869020553760501,
            "alpha": 54.83949433336839,
            "beta": 54.8394943077695,
            "gamma": 54.83949496022439,
            "volume": 125.7742328058859
        },
        "sites": [
            {
                "species": [
                    {
                        "element": "Li",
                        "occu": 1
                    }
                ],
                "abc": [
                    0.34287962,
                    0.34287962,
                    0.34287962
                ],
                "xyz": [
                    -3.428796210619505e-09,
                    2.220446049250313e-16,
                    5.112844783609576
                ],
                "label": "Li",
                "properties": {}
            },
            {
                "species": [
                    {
                        "element": "Li",
                        "occu": 1
                    }
                ],
                "abc": [
                    0.51260105,
                    0.9021293,
                    0.23433731
                ],
                "xyz": [
                    -1.0527832192971265,
                    1.4762405513332642,
                    8.196683317262824
                ],
                "label": "Li",
                "properties": {}
            },
            {
                "species": [
                    {
                        "element": "Li",
                        "occu": 1
                    }
                ],
                "abc": [
                    0.23433731,
                    0.51260105,
                    0.9021293
                ],
                "xyz": [
                    -0.7520702386607129,
                    -1.649857267071553,
                    8.196683317262824
                ],
                "label": "Li",
                "properties": {}
            },
            {
                "species": [
                    {
                        "element": "Li",
                        "occu": 1
                    }
                ],
                "abc": [
                    0.9021293,
                    0.23433731,
                    0.51260105
                ],
                "xyz": [
                    1.8048534414671626,
                    0.17361671573828907,
                    8.196683317262824
                ],
                "label": "Li",
                "properties": {}
            },
            {
                "species": [
                    {
                        "element": "Li",
                        "occu": 1
                    }
                ],
                "abc": [
                    0.48739895,
                    0.0978707,
                    0.76566269
                ],
                "xyz": [
                    1.0527832092971265,
                    -1.4762405513332642,
                    6.714803062737177
                ],
                "label": "Li",
                "properties": {}
            },
            {
                "species": [
                    {
                        "element": "Li",
                        "occu": 1
                    }
                ],
                "abc": [
                    0.76566269,
                    0.48739895,
                    0.0978707
                ],
                "xyz": [
                    0.7520702286607128,
                    1.6498572670715532,
                    6.714803062737176
                ],
                "label": "Li",
                "properties": {}
            },
            {
                "species": [
                    {
                        "element": "Li",
                        "occu": 1
                    }
                ],
                "abc": [
                    0.65712038,
                    0.65712038,
                    0.65712038
                ],
                "xyz": [
                    -6.571203725580607e-09,
                    4.440892098500626e-16,
                    9.798641596390425
                ],
                "label": "Li",
                "properties": {}
            },
            {
                "species": [
                    {
                        "element": "Li",
                        "occu": 1
                    }
                ],
                "abc": [
                    0.0978707,
                    0.76566269,
                    0.48739895
                ],
                "xyz": [
                    -1.8048534514671624,
                    -0.17361671573828885,
                    6.714803062737177
                ],
                "label": "Li",
                "properties": {}
            },
            {
                "species": [
                    {
                        "element": "Pt",
                        "occu": 1
                    }
                ],
                "abc": [
                    0.0,
                    0.0,
                    0.0
                ],
                "xyz": [
                    0.0,
                    0.0,
                    0.0
                ],
                "label": "Pt",
                "properties": {}
            },
            {
                "species": [
                    {
                        "element": "O",
                        "occu": 1
                    }
                ],
                "abc": [
                    0.23557836,
                    0.90704923,
                    0.61850715
                ],
                "xyz": [
                    -1.8147963968355196,
                    -0.14728033575987665,
                    8.753712229618282
                ],
                "label": "O",
                "properties": {}
            },
            {
                "species": [
                    {
                        "element": "O",
                        "occu": 1
                    }
                ],
                "abc": [
                    0.09295077,
                    0.38149285,
                    0.76442164
                ],
                "xyz": [
                    -0.7798496837719774,
                    -1.6452999190105269,
                    6.15777415038172
                ],
                "label": "O",
                "properties": {}
            },
            {
                "species": [
                    {
                        "element": "O",
                        "occu": 1
                    }
                ],
                "abc": [
                    0.76442164,
                    0.09295077,
                    0.38149285
                ],
                "xyz": [
                    1.81479638683552,
                    0.14728033575987687,
                    6.15777415038172
                ],
                "label": "O",
                "properties": {}
            },
            {
                "species": [
                    {
                        "element": "O",
                        "occu": 1
                    }
                ],
                "abc": [
                    0.61850715,
                    0.23557836,
                    0.90704923
                ],
                "xyz": [
                    1.0349467054521948,
                    -1.49801958325065,
                    8.75371222961828
                ],
                "label": "O",
                "properties": {}
            },
            {
                "species": [
                    {
                        "element": "O",
                        "occu": 1
                    }
                ],
                "abc": [
                    0.90704923,
                    0.61850715,
                    0.23557836
                ],
                "xyz": [
                    0.7798496737719778,
                    1.6452999190105269,
                    8.753712229618282
                ],
                "label": "O",
                "properties": {}
            },
            {
                "species": [
                    {
                        "element": "O",
                        "occu": 1
                    }
                ],
                "abc": [
                    0.38149285,
                    0.76442164,
                    0.09295077
                ],
                "xyz": [
                    -1.0349467154521947,
                    1.4980195832506498,
                    6.15777415038172
                ],
                "label": "O",
                "properties": {}
            }
        ]
    },
    "spacegroup": {
        "source": "spglib",
        "symbol": "R-3",
        "number": 148,
        "point_group": "-3",
        "crystal_system": "trigonal",
        "hall": "-R 3"
    },
    "dielectric": {
        "epsilon_ionic": [
            [
                5.49971435,
                -3.6e-06,
                -3.34e-06
            ],
            [
                -3.6e-06,
                5.49974916,
                -6.1e-07
            ],
            [
                -3.34e-06,
                -6.1e-07,
                7.96577398
            ]
        ],
        "epsilon_ionic_avg": 6.32174583,
        "epsilon_ionic_eig": [
            5.49971398158755,
            5.499749528407776,
            7.965773980004674
        ],
        "epsilon_electronic": [
            [
                3.78836237,
                4.6e-07,
                0.0
            ],
            [
                -4.6e-07,
                3.78836254,
                0.0
            ],
            [
                0.0,
                0.0,
                3.92790819
            ]
        ],
        "epsilon_electronic_avg": 3.8348777,
        "epsilon_electronic_eig": [
            3.7883624549999997,
            3.7883624549999997,
            3.92790819
        ]
    },
    "phonon": {
        "lowest_freq": -0.02829919324652775,
        "frequency": [
            -0.02829919324652775,
            -0.028299192598805752,
            -0.01340678097519156,
            5.694375735183111,
            5.694375799562459,
            6.477973502115247,
            7.086410132704311,
            7.086410236170012,
            7.399251365872603,
            8.592689453780174,
            8.592689567551368,
            8.838229222316786,
            8.838229332927236,
            9.846248668896177,
            9.980629235958025,
            9.980629321664088,
            11.253822204695666,
            11.317715459367676,
            11.594482994665846,
            11.594483057902853,
            11.655616320157092,
            11.655616351609757,
            12.344743978411488,
            12.344744037805217,
            12.492663850842488,
            13.632668876547948,
            13.64322177890477,
            14.320706254018814,
            14.32070634788295,
            15.66364922340686,
            15.663649379436992,
            15.702107206569059,
            15.87019540094973,
            16.6573051426656,
            16.657305216026842,
            16.950530881453528,
            17.031233110429916,
            17.031233397432185,
            18.16304328590464,
            18.163043353184147,
            18.441398217615472,
            18.464767178506413,
            19.366428574809184,
            19.60139358032366,
            19.601393705008743
        ]
    },
    "born_effective_charge": {
        "avg_abs_trace": 1.3959602222222223,
        "tensors": [
            [
                [
                    1.21236,
                    -0.02229,
                    -0.0
                ],
                [
                    0.02229,
                    1.21237,
                    -0.0
                ],
                [
                    -0.0,
                    -0.0,
                    0.64948
                ]
            ],
            [
                [
                    0.78711,
                    0.26153,
                    0.22687
                ],
                [
                    0.23036,
                    1.15078,
                    0.08902
                ],
                [
                    0.02193,
                    -0.02324,
                    1.18316
                ]
            ],
            [
                [
                    1.27286,
                    0.05008,
                    -0.19053
                ],
                [
                    0.01891,
                    0.66504,
                    0.15196
                ],
                [
                    0.00916,
                    0.03061,
                    1.18316
                ]
            ],
            [
                [
                    0.84686,
                    -0.26486,
                    -0.03634
                ],
                [
                    -0.29603,
                    1.09103,
                    -0.24099
                ],
                [
                    -0.03109,
                    -0.00738,
                    1.18316
                ]
            ],
            [
                [
                    0.78712,
                    0.26153,
                    0.22687
                ],
                [
                    0.23036,
                    1.15078,
                    0.08902
                ],
                [
                    0.02193,
                    -0.02324,
                    1.18315
                ]
            ],
            [
                [
                    1.27286,
                    0.05008,
                    -0.19053
                ],
                [
                    0.01891,
                    0.66504,
                    0.15197
                ],
                [
                    0.00916,
                    0.03061,
                    1.18315
                ]
            ],
            [
                [
                    1.21237,
                    -0.02229,
                    -0.0
                ],
                [
                    0.02229,
                    1.21237,
                    -0.0
                ],
                [
                    -0.0,
                    -0.0,
                    0.64948
                ]
            ],
            [
                [
                    0.84687,
                    -0.26486,
                    -0.03634
                ],
                [
                    -0.29603,
                    1.09103,
                    -0.24098
                ],
                [
                    -0.03109,
                    -0.00738,
                    1.18315
                ]
            ],
            [
                [
                    2.24583,
                    0.03204,
                    -0.0
                ],
                [
                    -0.03204,
                    2.24581,
                    -0.0
                ],
                [
                    -0.0,
                    -0.0,
                    2.04273
                ]
            ],
            [
                [
                    -1.47096,
                    -0.39342,
                    0.37185
                ],
                [
                    -0.3664,
                    -2.0238,
                    0.50075
                ],
                [
                    0.31583,
                    0.53947,
                    -1.74009
                ]
            ],
            [
                [
                    -1.55659,
                    0.41586,
                    0.24776
                ],
                [
                    0.44285,
                    -1.93817,
                    -0.57235
                ],
                [
                    0.30929,
                    -0.54323,
                    -1.74011
                ]
            ],
            [
                [
                    -1.47091,
                    -0.39337,
                    0.37179
                ],
                [
                    -0.3664,
                    -2.02384,
                    0.50075
                ],
                [
                    0.31581,
                    0.53947,
                    -1.74011
                ]
            ],
            [
                [
                    -2.21463,
                    -0.06294,
                    -0.6196
                ],
                [
                    -0.03593,
                    -1.28014,
                    0.07165
                ],
                [
                    -0.62511,
                    0.00378,
                    -1.74009
                ]
            ],
            [
                [
                    -1.55658,
                    0.41585,
                    0.24775
                ],
                [
                    0.44284,
                    -1.93815,
                    -0.57241
                ],
                [
                    0.30928,
                    -0.54325,
                    -1.74009
                ]
            ],
            [
                [
                    -2.21457,
                    -0.06295,
                    -0.61955
                ],
                [
                    -0.03598,
                    -1.28016,
                    0.07162
                ],
                [
                    -0.6251,
                    0.00377,
                    -1.74011
                ]
            ]
        ]
    },
    "band_gap": 2.6579999999999995,
    "is_direct": true,
    "formula": "Li8PtO6"
}