{
    "mp_id": "mp-8299",
    "nelements": 3,
    "nsites": 7,
    "elements": [
        "As",
        "O",
        "Sr"
    ],
    "structure": {
        "@module": "pymatgen.core.structure",
        "@class": "Structure",
        "charge": null,
        "lattice": {
            "matrix": [
                [
                    -2.40899796,
                    2.40899796,
                    8.10033772
                ],
                [
                    2.40899796,
                    -2.40899796,
                    8.10033772
                ],
                [
                    2.40899796,
                    2.40899796,
                    -8.10033772
                ]
            ],
            "a": 8.787605676213694,
            "b": 8.787605676213694,
            "c": 8.787605676213694,
            "alpha": 148.17895098699353,
            "beta": 148.17895098699353,
            "gamma": 45.62126732034087,
            "volume": 188.03382547256675
        },
        "sites": [
            {
                "species": [
                    {
                        "element": "Sr",
                        "occu": 1
                    }
                ],
                "abc": [
                    0.67324713,
                    0.67324713,
                    0.0
                ],
                "xyz": [
                    0.0,
                    0.0,
                    10.907058244041488
                ],
                "label": "Sr",
                "properties": {}
            },
            {
                "species": [
                    {
                        "element": "Sr",
                        "occu": 1
                    }
                ],
                "abc": [
                    0.32675287,
                    0.32675287,
                    0.0
                ],
                "xyz": [
                    0.0,
                    0.0,
                    5.293617195958513
                ],
                "label": "Sr",
                "properties": {}
            },
            {
                "species": [
                    {
                        "element": "Sr",
                        "occu": 1
                    }
                ],
                "abc": [
                    0.5,
                    0.0,
                    0.5
                ],
                "xyz": [
                    0.0,
                    2.40899796,
                    0.0
                ],
                "label": "Sr",
                "properties": {}
            },
            {
                "species": [
                    {
                        "element": "Sr",
                        "occu": 1
                    }
                ],
                "abc": [
                    0.0,
                    0.5,
                    0.5
                ],
                "xyz": [
                    2.40899796,
                    0.0,
                    0.0
                ],
                "label": "Sr",
                "properties": {}
            },
            {
                "species": [
                    {
                        "element": "As",
                        "occu": 1
                    }
                ],
                "abc": [
                    0.86413391,
                    0.86413391,
                    0.0
                ],
                "xyz": [
                    0.0,
                    0.0,
                    13.999553012608171
                ],
                "label": "As",
                "properties": {}
            },
            {
                "species": [
                    {
                        "element": "As",
                        "occu": 1
                    }
                ],
                "abc": [
                    0.13586609,
                    0.13586609,
                    0.0
                ],
                "xyz": [
                    0.0,
                    0.0,
                    2.2011224273918297
                ],
                "label": "As",
                "properties": {}
            },
            {
                "species": [
                    {
                        "element": "O",
                        "occu": 1
                    }
                ],
                "abc": [
                    0.5,
                    0.5,
                    0.0
                ],
                "xyz": [
                    0.0,
                    0.0,
                    8.10033772
                ],
                "label": "O",
                "properties": {}
            }
        ]
    },
    "spacegroup": {
        "source": "spglib",
        "symbol": "I4/mmm",
        "number": 139,
        "point_group": "4/mmm",
        "crystal_system": "tetragonal",
        "hall": "-I 4 2"
    },
    "dielectric": {
        "epsilon_ionic": [
            [
                23.32820168,
                2e-08,
                0.0
            ],
            [
                2e-08,
                23.32751503,
                -1e-08
            ],
            [
                0.0,
                -1e-08,
                141.85815789
            ]
        ],
        "epsilon_ionic_avg": 62.8379582,
        "epsilon_ionic_eig": [
            23.328201680000582,
            23.327515029999418,
            141.85815789
        ],
        "epsilon_electronic": [
            [
                8.70602445,
                0.0,
                0.0
            ],
            [
                0.0,
                8.70602445,
                -0.0
            ],
            [
                0.0,
                0.0,
                7.54185377
            ]
        ],
        "epsilon_electronic_avg": 8.317967556666666,
        "epsilon_electronic_eig": [
            8.70602445,
            8.70602445,
            7.54185377
        ]
    },
    "phonon": {
        "lowest_freq": -0.012576862962122983,
        "frequency": [
            -0.012576862962122983,
            -0.0025546994326339726,
            -0.0025546994326339726,
            0.9314237733205083,
            1.847736926596399,
            1.847736926596399,
            2.3658852964886155,
            2.4954600962680864,
            2.4954600962680864,
            2.753100499302133,
            2.753100499302133,
            3.053325689686794,
            3.053325689686794,
            3.795259463885591,
            4.232364598118877,
            4.701320797608537,
            4.801172547994302,
            4.801172547994302,
            6.149841010167555,
            10.721985333941934,
            10.721985333941934
        ]
    },
    "born_effective_charge": {
        "avg_abs_trace": 2.762383809523809,
        "tensors": [
            [
                [
                    2.48844,
                    -0.0,
                    0.00013
                ],
                [
                    0.0,
                    2.48839,
                    2e-05
                ],
                [
                    -0.0,
                    -0.0,
                    2.32153
                ]
            ],
            [
                [
                    2.48844,
                    -0.0,
                    -0.00013
                ],
                [
                    -0.0,
                    2.48839,
                    -2e-05
                ],
                [
                    -0.0,
                    -0.0,
                    2.32139
                ]
            ],
            [
                [
                    2.19214,
                    0.0,
                    0.0
                ],
                [
                    0.0,
                    2.84431,
                    -0.0
                ],
                [
                    0.0,
                    0.0,
                    2.1677
                ]
            ],
            [
                [
                    2.84437,
                    0.0,
                    0.0
                ],
                [
                    0.0,
                    2.19221,
                    -0.0
                ],
                [
                    0.0,
                    0.0,
                    2.1677
                ]
            ],
            [
                [
                    -3.34326,
                    -0.0,
                    0.00013
                ],
                [
                    0.0,
                    -3.34321,
                    0.00048
                ],
                [
                    -0.0,
                    -0.0,
                    -3.12769
                ]
            ],
            [
                [
                    -3.34326,
                    0.0,
                    -0.00013
                ],
                [
                    0.0,
                    -3.34321,
                    -0.00048
                ],
                [
                    -0.0,
                    -0.0,
                    -3.12757
                ]
            ],
            [
                [
                    -3.32688,
                    0.0,
                    0.0
                ],
                [
                    0.0,
                    -3.32689,
                    -0.0
                ],
                [
                    0.0,
                    0.0,
                    -2.72308
                ]
            ]
        ]
    },
    "band_gap": 1.0608,
    "is_direct": false,
    "formula": "Sr4As2O"
}