{
    "mp_id": "mp-856",
    "nelements": 2,
    "nsites": 6,
    "elements": [
        "O",
        "Sn"
    ],
    "structure": {
        "@module": "pymatgen.core.structure",
        "@class": "Structure",
        "charge": null,
        "lattice": {
            "matrix": [
                [
                    4.77652631,
                    0.0,
                    0.0
                ],
                [
                    0.0,
                    4.77652631,
                    0.0
                ],
                [
                    0.0,
                    0.0,
                    3.21688795
                ]
            ],
            "a": 4.77652631,
            "b": 4.77652631,
            "c": 3.21688795,
            "alpha": 90.0,
            "beta": 90.0,
            "gamma": 90.0,
            "volume": 73.3939535058609
        },
        "sites": [
            {
                "species": [
                    {
                        "element": "Sn",
                        "occu": 1
                    }
                ],
                "abc": [
                    0.5,
                    0.5,
                    0.5
                ],
                "xyz": [
                    2.388263155,
                    2.388263155,
                    1.608443975
                ],
                "label": "Sn",
                "properties": {}
            },
            {
                "species": [
                    {
                        "element": "Sn",
                        "occu": 1
                    }
                ],
                "abc": [
                    0.0,
                    0.0,
                    0.0
                ],
                "xyz": [
                    0.0,
                    0.0,
                    0.0
                ],
                "label": "Sn",
                "properties": {}
            },
            {
                "species": [
                    {
                        "element": "O",
                        "occu": 1
                    }
                ],
                "abc": [
                    0.19372639,
                    0.80627361,
                    0.5
                ],
                "xyz": [
                    0.925339198776321,
                    3.851187111223679,
                    1.608443975
                ],
                "label": "O",
                "properties": {}
            },
            {
                "species": [
                    {
                        "element": "O",
                        "occu": 1
                    }
                ],
                "abc": [
                    0.80627361,
                    0.19372639,
                    0.5
                ],
                "xyz": [
                    3.851187111223679,
                    0.925339198776321,
                    1.608443975
                ],
                "label": "O",
                "properties": {}
            },
            {
                "species": [
                    {
                        "element": "O",
                        "occu": 1
                    }
                ],
                "abc": [
                    0.30627361,
                    0.30627361,
                    0.0
                ],
                "xyz": [
                    1.462923956223679,
                    1.462923956223679,
                    0.0
                ],
                "label": "O",
                "properties": {}
            },
            {
                "species": [
                    {
                        "element": "O",
                        "occu": 1
                    }
                ],
                "abc": [
                    0.69372639,
                    0.69372639,
                    0.0
                ],
                "xyz": [
                    3.3136023537763215,
                    3.3136023537763215,
                    0.0
                ],
                "label": "O",
                "properties": {}
            }
        ]
    },
    "spacegroup": {
        "source": "spglib",
        "symbol": "P4_2/mnm",
        "number": 136,
        "point_group": "4/mmm",
        "crystal_system": "tetragonal",
        "hall": "-P 4n 2n"
    },
    "dielectric": {
        "epsilon_ionic": [
            [
                8.6716464,
                -1.2e-07,
                -1e-08
            ],
            [
                -1.2e-07,
                8.67164629,
                -1e-08
            ],
            [
                -1e-08,
                -1e-08,
                5.15804173
            ]
        ],
        "epsilon_ionic_avg": 7.50044480666667,
        "epsilon_ionic_eig": [
            8.671646477003792,
            8.671646212996217,
            5.15804173
        ],
        "epsilon_electronic": [
            [
                4.37338742,
                0.0,
                0.0
            ],
            [
                0.0,
                4.37338742,
                0.0
            ],
            [
                0.0,
                0.0,
                4.62964441
            ]
        ],
        "epsilon_electronic_avg": 4.458806416666667,
        "epsilon_electronic_eig": [
            4.37338742,
            4.37338742,
            4.62964441
        ]
    },
    "phonon": {
        "lowest_freq": -0.013816752080658332,
        "frequency": [
            -0.013816752080658332,
            -0.013816752080658332,
            -0.004721039608787144,
            3.09370196829053,
            4.328056808664409,
            6.571020174022448,
            6.571020174022448,
            8.27731288782312,
            8.27731288782312,
            10.244956497462548,
            13.714518444511551,
            13.903621288573502,
            13.903621288573502,
            16.53832721117987,
            17.5150176287946,
            17.5150176287946,
            18.549195445649172,
            22.359350966094166
        ]
    },
    "born_effective_charge": {
        "avg_abs_trace": 2.828252222222222,
        "tensors": [
            [
                [
                    4.11215,
                    -0.46436,
                    0.0
                ],
                [
                    -0.46436,
                    4.11215,
                    0.0
                ],
                [
                    -0.0,
                    0.0,
                    4.50283
                ]
            ],
            [
                [
                    4.11215,
                    0.46436,
                    0.0
                ],
                [
                    0.46436,
                    4.11215,
                    0.0
                ],
                [
                    -0.0,
                    0.0,
                    4.50283
                ]
            ],
            [
                [
                    -2.05611,
                    0.72352,
                    0.0
                ],
                [
                    0.72371,
                    -2.05604,
                    0.0
                ],
                [
                    -0.0002,
                    0.0002,
                    -2.25142
                ]
            ],
            [
                [
                    -2.05604,
                    0.72371,
                    0.0
                ],
                [
                    0.72352,
                    -2.05611,
                    0.0
                ],
                [
                    0.0002,
                    -0.0002,
                    -2.25142
                ]
            ],
            [
                [
                    -2.05604,
                    -0.72371,
                    0.0
                ],
                [
                    -0.72371,
                    -2.05604,
                    0.0
                ],
                [
                    0.0002,
                    0.0002,
                    -2.25142
                ]
            ],
            [
                [
                    -2.05611,
                    -0.72352,
                    0.0
                ],
                [
                    -0.72352,
                    -2.05611,
                    0.0
                ],
                [
                    -0.0002,
                    -0.0002,
                    -2.25142
                ]
            ]
        ]
    },
    "band_gap": 0.8607999999999998,
    "is_direct": true,
    "formula": "SnO2"
}