{
    "mp_id": "mp-8314",
    "nelements": 4,
    "nsites": 16,
    "elements": [
        "As",
        "Cs",
        "Na",
        "O"
    ],
    "structure": {
        "@module": "pymatgen.core.structure",
        "@class": "Structure",
        "charge": null,
        "lattice": {
            "matrix": [
                [
                    6.02923276,
                    0.0,
                    0.00229328
                ],
                [
                    0.0,
                    6.1255884,
                    0.0
                ],
                [
                    -0.35776972,
                    0.0,
                    8.20812411
                ]
            ],
            "a": 6.029233196136171,
            "b": 6.1255884,
            "c": 8.215917512835203,
            "alpha": 90.0,
            "beta": 92.4739938273457,
            "gamma": 90.0,
            "volume": 303.15237602426413
        },
        "sites": [
            {
                "species": [
                    {
                        "element": "Cs",
                        "occu": 1
                    }
                ],
                "abc": [
                    0.8375942,
                    0.75,
                    0.81375149
                ],
                "xyz": [
                    4.758914747499109,
                    4.5941913,
                    6.6812940626444
                ],
                "label": "Cs",
                "properties": {}
            },
            {
                "species": [
                    {
                        "element": "Cs",
                        "occu": 1
                    }
                ],
                "abc": [
                    0.1624058,
                    0.25,
                    0.18624851
                ],
                "xyz": [
                    0.9125482925008908,
                    1.5313971,
                    1.5291233273556002
                ],
                "label": "Cs",
                "properties": {}
            },
            {
                "species": [
                    {
                        "element": "Cs",
                        "occu": 1
                    }
                ],
                "abc": [
                    0.29908098,
                    0.75,
                    0.5093351
                ],
                "xyz": [
                    1.6210041663957329,
                    4.5941913,
                    4.181371590809076
                ],
                "label": "Cs",
                "properties": {}
            },
            {
                "species": [
                    {
                        "element": "Cs",
                        "occu": 1
                    }
                ],
                "abc": [
                    0.70091902,
                    0.25,
                    0.4906649
                ],
                "xyz": [
                    4.050458873604267,
                    1.5313971,
                    4.029045799190924
                ],
                "label": "Cs",
                "properties": {}
            },
            {
                "species": [
                    {
                        "element": "Na",
                        "occu": 1
                    }
                ],
                "abc": [
                    0.6371846,
                    0.25,
                    0.97618168
                ],
                "xyz": [
                    3.4924860181647666,
                    1.5313971,
                    8.014081626047794
                ],
                "label": "Na",
                "properties": {}
            },
            {
                "species": [
                    {
                        "element": "Na",
                        "occu": 1
                    }
                ],
                "abc": [
                    0.3628154,
                    0.75,
                    0.02381832
                ],
                "xyz": [
                    2.178977021835234,
                    4.5941913,
                    0.19633576395220723
                ],
                "label": "Na",
                "properties": {}
            },
            {
                "species": [
                    {
                        "element": "As",
                        "occu": 1
                    }
                ],
                "abc": [
                    0.78817993,
                    0.75,
                    0.24083316
                ],
                "xyz": [
                    4.665957442510591,
                    4.5941913,
                    1.9785959843533578
                ],
                "label": "As",
                "properties": {}
            },
            {
                "species": [
                    {
                        "element": "As",
                        "occu": 1
                    }
                ],
                "abc": [
                    0.21182007,
                    0.25,
                    0.75916684
                ],
                "xyz": [
                    1.0055055974894083,
                    1.5313971,
                    6.2318214056466426
                ],
                "label": "As",
                "properties": {}
            },
            {
                "species": [
                    {
                        "element": "O",
                        "occu": 1
                    }
                ],
                "abc": [
                    0.35521296,
                    0.02479061,
                    0.83295449
                ],
                "xyz": [
                    1.843655720548527,
                    0.151857073044924,
                    6.837808434678663
                ],
                "label": "O",
                "properties": {}
            },
            {
                "species": [
                    {
                        "element": "O",
                        "occu": 1
                    }
                ],
                "abc": [
                    0.64478704,
                    0.52479061,
                    0.16704551
                ],
                "xyz": [
                    3.8278073194514732,
                    3.2146512730449244,
                    1.3726089553213374
                ],
                "label": "O",
                "properties": {}
            },
            {
                "species": [
                    {
                        "element": "O",
                        "occu": 1
                    }
                ],
                "abc": [
                    0.64478704,
                    0.97520939,
                    0.16704551
                ],
                "xyz": [
                    3.8278073194514732,
                    5.973731326955075,
                    1.3726089553213374
                ],
                "label": "O",
                "properties": {}
            },
            {
                "species": [
                    {
                        "element": "O",
                        "occu": 1
                    }
                ],
                "abc": [
                    0.35521296,
                    0.47520939,
                    0.83295449
                ],
                "xyz": [
                    1.843655720548527,
                    2.910937126955076,
                    6.837808434678663
                ],
                "label": "O",
                "properties": {}
            },
            {
                "species": [
                    {
                        "element": "O",
                        "occu": 1
                    }
                ],
                "abc": [
                    0.94638865,
                    0.25,
                    0.82838683
                ],
                "xyz": [
                    5.409625728051386,
                    1.5313971,
                    6.801672245892743
                ],
                "label": "O",
                "properties": {}
            },
            {
                "species": [
                    {
                        "element": "O",
                        "occu": 1
                    }
                ],
                "abc": [
                    0.20224814,
                    0.25,
                    0.54993212
                ],
                "xyz": [
                    1.02265205074566,
                    1.5313971,
                    4.514374904649912
                ],
                "label": "O",
                "properties": {}
            },
            {
                "species": [
                    {
                        "element": "O",
                        "occu": 1
                    }
                ],
                "abc": [
                    0.05361135,
                    0.75,
                    0.17161317
                ],
                "xyz": [
                    0.26183731194861365,
                    4.5941913,
                    1.4087451441072567
                ],
                "label": "O",
                "properties": {}
            },
            {
                "species": [
                    {
                        "element": "O",
                        "occu": 1
                    }
                ],
                "abc": [
                    0.79775186,
                    0.75,
                    0.45006788
                ],
                "xyz": [
                    4.648810989254341,
                    4.5941913,
                    3.6960424853500875
                ],
                "label": "O",
                "properties": {}
            }
        ]
    },
    "spacegroup": {
        "source": "spglib",
        "symbol": "P2_1/m",
        "number": 11,
        "point_group": "2/m",
        "crystal_system": "monoclinic",
        "hall": "-P 2yb"
    },
    "dielectric": {
        "epsilon_ionic": [
            [
                6.89674706,
                1.4e-07,
                -0.01077365
            ],
            [
                1.4e-07,
                5.48260979,
                -1.2e-07
            ],
            [
                -0.01077365,
                -1.2e-07,
                5.04243765
            ]
        ],
        "epsilon_ionic_avg": 5.807264833333334,
        "epsilon_ionic_eig": [
            6.896809653446263,
            5.042375056553721,
            5.4826097900000175
        ],
        "epsilon_electronic": [
            [
                2.91745742,
                0.0,
                -0.01477332
            ],
            [
                0.0,
                2.94370912,
                0.0
            ],
            [
                -0.0147717,
                0.0,
                2.98491152
            ]
        ],
        "epsilon_electronic_avg": 2.9486926866666665,
        "epsilon_electronic_eig": [
            2.9143640822678414,
            2.9880048577321583,
            2.94370912
        ]
    },
    "phonon": {
        "lowest_freq": -0.14065885243302917,
        "frequency": [
            -0.14065885243302917,
            -0.05279838211304631,
            -0.02153030338603052,
            1.0600962570163144,
            1.3773145407619203,
            1.4443293576217717,
            1.668750055356705,
            1.7638236314388618,
            1.8048142674975904,
            2.071571290168975,
            2.2312901690483313,
            2.248682546619433,
            2.444235055938615,
            2.5012850349205666,
            2.775044627801652,
            2.8218624358669415,
            2.893469508059577,
            3.226917088786303,
            3.3158795739077473,
            3.6499146581417015,
            3.9568015559810106,
            4.358185193145612,
            4.428086131435947,
            4.432927662645174,
            5.640886960488281,
            5.700975322020134,
            6.281294856434238,
            6.304485873568166,
            6.3962397559713535,
            6.663337419161385,
            8.4724150495476,
            8.676125416906984,
            9.316661913268513,
            9.340364631402124,
            10.592116905396765,
            10.75377603768999,
            10.81313171973613,
            11.291196065820312,
            11.295036709486274,
            11.441910127194362,
            22.692726935329116,
            23.19682115076797,
            23.263400142801295,
            23.314877813564532,
            23.436060676315684,
            23.499176671554387,
            23.58164682826105,
            23.902850521193443
        ]
    },
    "born_effective_charge": {
        "avg_abs_trace": 1.6748272916666664,
        "tensors": [
            [
                [
                    1.18963,
                    0.0,
                    0.01649
                ],
                [
                    0.00023,
                    1.41892,
                    3e-05
                ],
                [
                    0.05102,
                    0.0,
                    1.53219
                ]
            ],
            [
                [
                    1.18961,
                    0.0,
                    0.01646
                ],
                [
                    -0.00023,
                    1.41892,
                    -3e-05
                ],
                [
                    0.0511,
                    0.0,
                    1.5323
                ]
            ],
            [
                [
                    1.37288,
                    0.0,
                    0.06631
                ],
                [
                    -0.00024,
                    1.33852,
                    6e-05
                ],
                [
                    0.05967,
                    0.0,
                    1.20679
                ]
            ],
            [
                [
                    1.37291,
                    0.0,
                    0.06633
                ],
                [
                    0.00024,
                    1.33852,
                    -6e-05
                ],
                [
                    0.0598,
                    0.0,
                    1.2069
                ]
            ],
            [
                [
                    1.20327,
                    0.0,
                    0.05899
                ],
                [
                    3e-05,
                    1.06008,
                    -6e-05
                ],
                [
                    0.01998,
                    0.0,
                    1.16604
                ]
            ],
            [
                [
                    1.20333,
                    0.0,
                    0.05898
                ],
                [
                    -3e-05,
                    1.06008,
                    6e-05
                ],
                [
                    0.01998,
                    0.0,
                    1.16603
                ]
            ],
            [
                [
                    2.76268,
                    0.0,
                    -0.06596
                ],
                [
                    -0.00023,
                    2.91114,
                    -0.0001
                ],
                [
                    -0.11332,
                    0.0,
                    2.93555
                ]
            ],
            [
                [
                    2.76244,
                    0.0,
                    -0.06612
                ],
                [
                    0.00023,
                    2.91114,
                    0.0001
                ],
                [
                    -0.11343,
                    0.0,
                    2.93597
                ]
            ],
            [
                [
                    -1.49379,
                    0.34978,
                    -0.14614
                ],
                [
                    0.44343,
                    -1.95444,
                    0.23717
                ],
                [
                    -0.13339,
                    0.19277,
                    -1.52027
                ]
            ],
            [
                [
                    -1.49411,
                    -0.35107,
                    -0.14684
                ],
                [
                    -0.44343,
                    -1.95444,
                    -0.23717
                ],
                [
                    -0.13347,
                    -0.19268,
                    -1.52033
                ]
            ],
            [
                [
                    -1.49411,
                    0.35107,
                    -0.14684
                ],
                [
                    0.44303,
                    -1.95459,
                    0.23672
                ],
                [
                    -0.13347,
                    0.19268,
                    -1.52033
                ]
            ],
            [
                [
                    -1.49379,
                    -0.34978,
                    -0.14614
                ],
                [
                    -0.44303,
                    -1.95459,
                    -0.23672
                ],
                [
                    -0.13339,
                    -0.19277,
                    -1.52027
                ]
            ],
            [
                [
                    -2.08498,
                    0.0,
                    0.22093
                ],
                [
                    -0.00048,
                    -1.42205,
                    -3e-05
                ],
                [
                    0.22747,
                    0.0,
                    -1.56247
                ]
            ],
            [
                [
                    -1.45507,
                    0.0,
                    -0.0019
                ],
                [
                    0.00019,
                    -1.39759,
                    2e-05
                ],
                [
                    0.02301,
                    0.0,
                    -2.23936
                ]
            ],
            [
                [
                    -2.08532,
                    0.0,
                    0.22012
                ],
                [
                    0.00048,
                    -1.42205,
                    3e-05
                ],
                [
                    0.22536,
                    0.0,
                    -1.56169
                ]
            ],
            [
                [
                    -1.45557,
                    0.0,
                    -0.00468
                ],
                [
                    -0.00019,
                    -1.39759,
                    -2e-05
                ],
                [
                    0.02309,
                    0.0,
                    -2.23707
                ]
            ]
        ]
    },
    "band_gap": 3.7565999999999997,
    "is_direct": false,
    "formula": "Cs2NaAsO4"
}