{
    "mp_id": "mp-8208",
    "nelements": 3,
    "nsites": 10,
    "elements": [
        "Mg",
        "O",
        "Pt"
    ],
    "structure": {
        "@module": "pymatgen.core.structure",
        "@class": "Structure",
        "charge": null,
        "lattice": {
            "matrix": [
                [
                    3.5301727,
                    -4.92807272,
                    0.0
                ],
                [
                    3.5301727,
                    4.92807272,
                    0.0
                ],
                [
                    0.0,
                    0.0,
                    3.15228564
                ]
            ],
            "a": 6.062014518741562,
            "b": 6.062014518741562,
            "c": 3.15228564,
            "alpha": 90.0,
            "beta": 90.0,
            "gamma": 108.76896507907472,
            "volume": 109.68029733192674
        },
        "sites": [
            {
                "species": [
                    {
                        "element": "Mg",
                        "occu": 1
                    }
                ],
                "abc": [
                    0.5,
                    0.5,
                    0.0
                ],
                "xyz": [
                    3.5301727,
                    0.0,
                    0.0
                ],
                "label": "Mg",
                "properties": {}
            },
            {
                "species": [
                    {
                        "element": "Pt",
                        "occu": 1
                    }
                ],
                "abc": [
                    0.5,
                    0.0,
                    0.5
                ],
                "xyz": [
                    1.76508635,
                    -2.46403636,
                    1.57614282
                ],
                "label": "Pt",
                "properties": {}
            },
            {
                "species": [
                    {
                        "element": "Pt",
                        "occu": 1
                    }
                ],
                "abc": [
                    0.0,
                    0.0,
                    0.0
                ],
                "xyz": [
                    0.0,
                    0.0,
                    0.0
                ],
                "label": "Pt",
                "properties": {}
            },
            {
                "species": [
                    {
                        "element": "Pt",
                        "occu": 1
                    }
                ],
                "abc": [
                    0.0,
                    0.5,
                    0.5
                ],
                "xyz": [
                    1.76508635,
                    2.46403636,
                    1.57614282
                ],
                "label": "Pt",
                "properties": {}
            },
            {
                "species": [
                    {
                        "element": "O",
                        "occu": 1
                    }
                ],
                "abc": [
                    0.08570894,
                    0.3398678,
                    0.0
                ],
                "xyz": [
                    1.502359389302998,
                    1.2525133445122993,
                    0.0
                ],
                "label": "O",
                "properties": {}
            },
            {
                "species": [
                    {
                        "element": "O",
                        "occu": 1
                    }
                ],
                "abc": [
                    0.91429106,
                    0.6601322,
                    0.0
                ],
                "xyz": [
                    5.557986010697002,
                    -1.2525133445122996,
                    0.0
                ],
                "label": "O",
                "properties": {}
            },
            {
                "species": [
                    {
                        "element": "O",
                        "occu": 1
                    }
                ],
                "abc": [
                    0.3398678,
                    0.08570894,
                    0.0
                ],
                "xyz": [
                    1.502359389302998,
                    -1.2525133445122993,
                    0.0
                ],
                "label": "O",
                "properties": {}
            },
            {
                "species": [
                    {
                        "element": "O",
                        "occu": 1
                    }
                ],
                "abc": [
                    0.6601322,
                    0.91429106,
                    0.0
                ],
                "xyz": [
                    5.557986010697002,
                    1.2525133445122996,
                    0.0
                ],
                "label": "O",
                "properties": {}
            },
            {
                "species": [
                    {
                        "element": "O",
                        "occu": 1
                    }
                ],
                "abc": [
                    0.64970574,
                    0.35029426,
                    0.5
                ],
                "xyz": [
                    3.5301727000000005,
                    -1.4755215466428255,
                    1.57614282
                ],
                "label": "O",
                "properties": {}
            },
            {
                "species": [
                    {
                        "element": "O",
                        "occu": 1
                    }
                ],
                "abc": [
                    0.35029426,
                    0.64970574,
                    0.5
                ],
                "xyz": [
                    3.5301727000000005,
                    1.4755215466428255,
                    1.57614282
                ],
                "label": "O",
                "properties": {}
            }
        ]
    },
    "spacegroup": {
        "source": "spglib",
        "symbol": "Cmmm",
        "number": 65,
        "point_group": "mmm",
        "crystal_system": "orthorhombic",
        "hall": "-C 2 2"
    },
    "dielectric": {
        "epsilon_ionic": [
            [
                3.28693432,
                1e-08,
                7e-08
            ],
            [
                1e-08,
                3.29527381,
                2e-08
            ],
            [
                7e-08,
                2e-08,
                4.1075497
            ]
        ],
        "epsilon_ionic_avg": 3.5632526099999997,
        "epsilon_ionic_eig": [
            3.2869343199999816,
            4.107549700000007,
            3.2952738100000114
        ],
        "epsilon_electronic": [
            [
                8.30087862,
                0.0,
                0.0
            ],
            [
                0.0,
                7.89336305,
                0.0
            ],
            [
                0.0,
                0.0,
                12.21049762
            ]
        ],
        "epsilon_electronic_avg": 9.46824643,
        "epsilon_electronic_eig": [
            8.30087862,
            7.89336305,
            12.21049762
        ]
    },
    "phonon": {
        "lowest_freq": -0.018122431365388665,
        "frequency": [
            -0.018122431365388665,
            -0.01559746232958791,
            -0.014554619199180139,
            3.9616666181002,
            4.27081079130935,
            4.473475707483161,
            4.484589519278014,
            5.406428849489675,
            6.583410598516194,
            6.7245079116892965,
            7.279490565338883,
            8.415807497853235,
            9.50743464747624,
            9.59827163927331,
            11.461342727016051,
            12.233503941451344,
            13.442360782215765,
            14.91913029196858,
            15.90741154557448,
            16.344467262292707,
            16.792794254708433,
            17.169958011629852,
            18.878714650021294,
            18.92995683520545,
            19.098810473841432,
            19.20653492972246,
            21.506084389447423,
            21.565458273201717,
            22.212210517243456,
            22.386087079172235
        ]
    },
    "born_effective_charge": {
        "avg_abs_trace": 1.6852663333333333,
        "tensors": [
            [
                [
                    1.84463,
                    0.0,
                    0.0
                ],
                [
                    0.0,
                    2.87189,
                    0.0
                ],
                [
                    -0.0,
                    -0.0,
                    1.85732
                ]
            ],
            [
                [
                    2.12817,
                    1.38968,
                    0.0
                ],
                [
                    0.77486,
                    1.35654,
                    0.0
                ],
                [
                    -0.0,
                    -0.0,
                    5.00538
                ]
            ],
            [
                [
                    1.74642,
                    0.0,
                    0.0
                ],
                [
                    0.0,
                    1.06901,
                    0.0
                ],
                [
                    0.0,
                    -0.0,
                    -1.09048
                ]
            ],
            [
                [
                    2.12817,
                    -1.38968,
                    0.0
                ],
                [
                    -0.77486,
                    1.35654,
                    0.0
                ],
                [
                    -0.0,
                    -0.0,
                    5.00538
                ]
            ],
            [
                [
                    -0.57729,
                    -0.49556,
                    0.0
                ],
                [
                    -0.46406,
                    -1.08722,
                    0.0
                ],
                [
                    0.0001,
                    -0.00137,
                    -2.31733
                ]
            ],
            [
                [
                    -0.57738,
                    -0.49555,
                    0.0
                ],
                [
                    -0.46432,
                    -1.0875,
                    0.0
                ],
                [
                    -0.0001,
                    0.00137,
                    -2.31733
                ]
            ],
            [
                [
                    -0.57729,
                    0.49556,
                    0.0
                ],
                [
                    0.46432,
                    -1.0875,
                    0.0
                ],
                [
                    0.0001,
                    0.00137,
                    -2.31733
                ]
            ],
            [
                [
                    -0.57738,
                    0.49555,
                    0.0
                ],
                [
                    0.46406,
                    -1.08722,
                    0.0
                ],
                [
                    -0.0001,
                    -0.00137,
                    -2.31733
                ]
            ],
            [
                [
                    -2.76903,
                    -0.00018,
                    0.0
                ],
                [
                    0.0,
                    -1.15245,
                    0.0
                ],
                [
                    -0.0,
                    -0.00068,
                    -0.75415
                ]
            ],
            [
                [
                    -2.76903,
                    0.00018,
                    0.0
                ],
                [
                    0.0,
                    -1.15211,
                    0.0
                ],
                [
                    -0.0,
                    0.00068,
                    -0.75415
                ]
            ]
        ]
    },
    "band_gap": 0.6905999999999999,
    "is_direct": false,
    "formula": "Mg(PtO2)3"
}