{
    "mp_id": "mp-8789",
    "nelements": 3,
    "nsites": 7,
    "elements": [
        "As",
        "Ca",
        "O"
    ],
    "structure": {
        "@module": "pymatgen.core.structure",
        "@class": "Structure",
        "charge": null,
        "lattice": {
            "matrix": [
                [
                    -2.25050321,
                    2.25050321,
                    7.63423527
                ],
                [
                    2.25050321,
                    -2.25050321,
                    7.63423527
                ],
                [
                    2.25050321,
                    2.25050321,
                    -7.63423527
                ]
            ],
            "a": 8.271098932678328,
            "b": 8.271098932678328,
            "c": 8.271098932678328,
            "alpha": 148.42236955412613,
            "beta": 148.42236955412613,
            "gamma": 45.26224827654982,
            "volume": 154.66242117361742
        },
        "sites": [
            {
                "species": [
                    {
                        "element": "Ca",
                        "occu": 1
                    }
                ],
                "abc": [
                    0.6711174,
                    0.6711174,
                    0.0
                ],
                "xyz": [
                    0.0,
                    0.0,
                    10.246936250781395
                ],
                "label": "Ca",
                "properties": {}
            },
            {
                "species": [
                    {
                        "element": "Ca",
                        "occu": 1
                    }
                ],
                "abc": [
                    0.3288826,
                    0.3288826,
                    0.0
                ],
                "xyz": [
                    0.0,
                    0.0,
                    5.021534289218604
                ],
                "label": "Ca",
                "properties": {}
            },
            {
                "species": [
                    {
                        "element": "Ca",
                        "occu": 1
                    }
                ],
                "abc": [
                    0.0,
                    0.5,
                    0.5
                ],
                "xyz": [
                    2.25050321,
                    0.0,
                    0.0
                ],
                "label": "Ca",
                "properties": {}
            },
            {
                "species": [
                    {
                        "element": "Ca",
                        "occu": 1
                    }
                ],
                "abc": [
                    0.5,
                    0.0,
                    0.5
                ],
                "xyz": [
                    0.0,
                    2.25050321,
                    0.0
                ],
                "label": "Ca",
                "properties": {}
            },
            {
                "species": [
                    {
                        "element": "As",
                        "occu": 1
                    }
                ],
                "abc": [
                    0.8629573,
                    0.8629573,
                    0.0
                ],
                "xyz": [
                    0.0,
                    0.0,
                    13.176038112327943
                ],
                "label": "As",
                "properties": {}
            },
            {
                "species": [
                    {
                        "element": "As",
                        "occu": 1
                    }
                ],
                "abc": [
                    0.1370427,
                    0.1370427,
                    0.0
                ],
                "xyz": [
                    0.0,
                    0.0,
                    2.092432427672058
                ],
                "label": "As",
                "properties": {}
            },
            {
                "species": [
                    {
                        "element": "O",
                        "occu": 1
                    }
                ],
                "abc": [
                    0.5,
                    0.5,
                    0.0
                ],
                "xyz": [
                    0.0,
                    0.0,
                    7.63423527
                ],
                "label": "O",
                "properties": {}
            }
        ]
    },
    "spacegroup": {
        "source": "spglib",
        "symbol": "I4/mmm",
        "number": 139,
        "point_group": "4/mmm",
        "crystal_system": "tetragonal",
        "hall": "-I 4 2"
    },
    "dielectric": {
        "epsilon_ionic": [
            [
                16.37098526,
                2e-08,
                0.0
            ],
            [
                2e-08,
                16.37105251,
                -0.0
            ],
            [
                0.0,
                -0.0,
                21.39209958
            ]
        ],
        "epsilon_ionic_avg": 18.04471245,
        "epsilon_ionic_eig": [
            16.370985259994054,
            16.371052510005946,
            21.39209958
        ],
        "epsilon_electronic": [
            [
                8.58708039,
                0.0,
                0.0
            ],
            [
                0.0,
                8.58708039,
                -0.0
            ],
            [
                0.0,
                -0.0,
                7.61955932
            ]
        ],
        "epsilon_electronic_avg": 8.264573366666667,
        "epsilon_electronic_eig": [
            8.58708039,
            8.58708039,
            7.61955932
        ]
    },
    "phonon": {
        "lowest_freq": -0.006676491408213915,
        "frequency": [
            -0.006676491408213915,
            -0.003175587898242052,
            -0.003175587886697727,
            3.1293512966716586,
            3.1293512966716586,
            3.2039819520946438,
            3.3069674055846434,
            3.3069674055846434,
            4.068798563182474,
            4.068798563182474,
            4.3163592459213875,
            4.4588817620366825,
            4.4588817620366825,
            4.985915553859272,
            5.422611625557334,
            5.93860070326247,
            7.559208474888056,
            7.559208474888056,
            8.972737966088697,
            12.66100579996524,
            12.66100579996524
        ]
    },
    "born_effective_charge": {
        "avg_abs_trace": 2.6722076190476187,
        "tensors": [
            [
                [
                    2.44829,
                    0.0,
                    7e-05
                ],
                [
                    -0.0,
                    2.44829,
                    -1e-05
                ],
                [
                    0.0,
                    0.0,
                    2.23499
                ]
            ],
            [
                [
                    2.44829,
                    -0.0,
                    -7e-05
                ],
                [
                    0.0,
                    2.44829,
                    1e-05
                ],
                [
                    0.0,
                    0.0,
                    2.23474
                ]
            ],
            [
                [
                    2.72274,
                    -0.0,
                    -0.0
                ],
                [
                    0.0,
                    2.02179,
                    0.0
                ],
                [
                    -0.0,
                    -0.0,
                    2.15312
                ]
            ],
            [
                [
                    2.02179,
                    -0.0,
                    -0.0
                ],
                [
                    0.0,
                    2.72273,
                    0.0
                ],
                [
                    -0.0,
                    -0.0,
                    2.15312
                ]
            ],
            [
                [
                    -3.13526,
                    -0.0,
                    0.00014
                ],
                [
                    0.0,
                    -3.13526,
                    0.00037
                ],
                [
                    -0.0,
                    -0.0,
                    -3.02252
                ]
            ],
            [
                [
                    -3.13526,
                    -0.0,
                    -0.00014
                ],
                [
                    -0.0,
                    -3.13526,
                    -0.00037
                ],
                [
                    -0.0,
                    -0.0,
                    -3.02244
                ]
            ],
            [
                [
                    -3.37057,
                    -0.0,
                    -0.0
                ],
                [
                    0.0,
                    -3.37059,
                    0.0
                ],
                [
                    -0.0,
                    -0.0,
                    -2.73102
                ]
            ]
        ]
    },
    "band_gap": 1.0922000000000005,
    "is_direct": false,
    "formula": "Ca4As2O"
}