{
    "mp_id": "mp-8759",
    "nelements": 3,
    "nsites": 12,
    "elements": [
        "Cs",
        "O",
        "Zr"
    ],
    "structure": {
        "@module": "pymatgen.core.structure",
        "@class": "Structure",
        "charge": null,
        "lattice": {
            "matrix": [
                [
                    5.62982146,
                    -3.82341665,
                    0.0
                ],
                [
                    5.62982146,
                    3.82341665,
                    0.0
                ],
                [
                    0.0,
                    0.0,
                    5.97659356
                ]
            ],
            "a": 6.805395253104242,
            "b": 6.805395253104242,
            "c": 5.97659356,
            "alpha": 90.0,
            "beta": 90.0,
            "gamma": 68.36370623106097,
            "volume": 257.2941828709305
        },
        "sites": [
            {
                "species": [
                    {
                        "element": "Cs",
                        "occu": 1
                    }
                ],
                "abc": [
                    0.80622232,
                    0.51955044,
                    0.75
                ],
                "xyz": [
                    7.463863935331429,
                    -1.0960660390788026,
                    4.48244517
                ],
                "label": "Cs",
                "properties": {}
            },
            {
                "species": [
                    {
                        "element": "Cs",
                        "occu": 1
                    }
                ],
                "abc": [
                    0.19377768,
                    0.48044956,
                    0.25
                ],
                "xyz": [
                    3.79577898466857,
                    1.096066039078802,
                    1.49414839
                ],
                "label": "Cs",
                "properties": {}
            },
            {
                "species": [
                    {
                        "element": "Cs",
                        "occu": 1
                    }
                ],
                "abc": [
                    0.51955044,
                    0.80622232,
                    0.25
                ],
                "xyz": [
                    7.463863935331429,
                    1.0960660390788026,
                    1.49414839
                ],
                "label": "Cs",
                "properties": {}
            },
            {
                "species": [
                    {
                        "element": "Cs",
                        "occu": 1
                    }
                ],
                "abc": [
                    0.48044956,
                    0.19377768,
                    0.75
                ],
                "xyz": [
                    3.79577898466857,
                    -1.096066039078802,
                    4.48244517
                ],
                "label": "Cs",
                "properties": {}
            },
            {
                "species": [
                    {
                        "element": "Zr",
                        "occu": 1
                    }
                ],
                "abc": [
                    0.08441481,
                    0.91558519,
                    0.75
                ],
                "xyz": [
                    5.62982146,
                    3.1779106698788273,
                    4.48244517
                ],
                "label": "Zr",
                "properties": {}
            },
            {
                "species": [
                    {
                        "element": "Zr",
                        "occu": 1
                    }
                ],
                "abc": [
                    0.91558519,
                    0.08441481,
                    0.25
                ],
                "xyz": [
                    5.62982146,
                    -3.1779106698788273,
                    1.49414839
                ],
                "label": "Zr",
                "properties": {}
            },
            {
                "species": [
                    {
                        "element": "O",
                        "occu": 1
                    }
                ],
                "abc": [
                    0.6611387,
                    0.3388613,
                    0.25
                ],
                "xyz": [
                    5.62982146,
                    -1.23220077707871,
                    1.49414839
                ],
                "label": "O",
                "properties": {}
            },
            {
                "species": [
                    {
                        "element": "O",
                        "occu": 1
                    }
                ],
                "abc": [
                    0.3388613,
                    0.6611387,
                    0.75
                ],
                "xyz": [
                    5.62982146,
                    1.23220077707871,
                    4.48244517
                ],
                "label": "O",
                "properties": {}
            },
            {
                "species": [
                    {
                        "element": "O",
                        "occu": 1
                    }
                ],
                "abc": [
                    0.11950662,
                    0.11950662,
                    0.5
                ],
                "xyz": [
                    1.3456018677761303,
                    0.0,
                    2.98829678
                ],
                "label": "O",
                "properties": {}
            },
            {
                "species": [
                    {
                        "element": "O",
                        "occu": 1
                    }
                ],
                "abc": [
                    0.11950662,
                    0.11950662,
                    0.0
                ],
                "xyz": [
                    1.3456018677761303,
                    0.0,
                    0.0
                ],
                "label": "O",
                "properties": {}
            },
            {
                "species": [
                    {
                        "element": "O",
                        "occu": 1
                    }
                ],
                "abc": [
                    0.88049338,
                    0.88049338,
                    0.5
                ],
                "xyz": [
                    9.914041052223869,
                    0.0,
                    2.98829678
                ],
                "label": "O",
                "properties": {}
            },
            {
                "species": [
                    {
                        "element": "O",
                        "occu": 1
                    }
                ],
                "abc": [
                    0.88049338,
                    0.88049338,
                    0.0
                ],
                "xyz": [
                    9.914041052223869,
                    0.0,
                    0.0
                ],
                "label": "O",
                "properties": {}
            }
        ]
    },
    "spacegroup": {
        "source": "spglib",
        "symbol": "Cmcm",
        "number": 63,
        "point_group": "mmm",
        "crystal_system": "orthorhombic",
        "hall": "-C 2c 2"
    },
    "dielectric": {
        "epsilon_ionic": [
            [
                5.94338702,
                -1e-08,
                -0.0
            ],
            [
                -1e-08,
                5.67989478,
                -0.0
            ],
            [
                -0.0,
                -0.0,
                22.09775127
            ]
        ],
        "epsilon_ionic_avg": 11.240344356666668,
        "epsilon_ionic_eig": [
            5.94338702,
            5.67989478,
            22.09775127
        ],
        "epsilon_electronic": [
            [
                3.46243292,
                0.0,
                0.0
            ],
            [
                0.0,
                3.6559714,
                -0.0
            ],
            [
                0.0,
                -0.0,
                3.6548221
            ]
        ],
        "epsilon_electronic_avg": 3.5910754733333334,
        "epsilon_electronic_eig": [
            3.46243292,
            3.6559714,
            3.6548221
        ]
    },
    "phonon": {
        "lowest_freq": -0.10144806945941631,
        "frequency": [
            -0.10144806945941631,
            -0.08520233148872326,
            -0.057284094838701324,
            1.2777297945212434,
            1.47998878952618,
            1.5022812336673528,
            2.030468123046034,
            2.1145742286838902,
            2.2633580304489853,
            2.263772796852109,
            2.360887432843343,
            2.430504358763121,
            2.8413065768709576,
            2.9251560312527505,
            3.1707766885989073,
            3.2463140566217565,
            3.2535946921071197,
            3.7100026299031366,
            5.2098843371961925,
            5.284180955930844,
            5.7423910933630955,
            6.198972570788897,
            7.750573044585591,
            7.82885800278053,
            9.443877642236398,
            9.704564467063095,
            11.73768896716651,
            11.751317010109005,
            12.943513940923166,
            13.956147768628231,
            14.123546915454089,
            15.22793207686412,
            16.382520124261497,
            17.660318251191363,
            19.790052943713608,
            20.537042627062018
        ]
    },
    "born_effective_charge": {
        "avg_abs_trace": 2.180127222222222,
        "tensors": [
            [
                [
                    1.45127,
                    0.13577,
                    0.0
                ],
                [
                    0.07299,
                    1.51484,
                    -0.0
                ],
                [
                    -0.0,
                    5e-05,
                    1.21569
                ]
            ],
            [
                [
                    1.45106,
                    0.13565,
                    0.0
                ],
                [
                    0.07289,
                    1.51489,
                    -0.0
                ],
                [
                    0.0,
                    -5e-05,
                    1.21569
                ]
            ],
            [
                [
                    1.45127,
                    -0.13577,
                    0.0
                ],
                [
                    -0.07289,
                    1.51489,
                    -0.0
                ],
                [
                    -0.0,
                    -5e-05,
                    1.21569
                ]
            ],
            [
                [
                    1.45106,
                    -0.13565,
                    0.0
                ],
                [
                    -0.07299,
                    1.51484,
                    -0.0
                ],
                [
                    0.0,
                    5e-05,
                    1.21569
                ]
            ],
            [
                [
                    3.08858,
                    0.00014,
                    0.0
                ],
                [
                    0.0,
                    3.29408,
                    -0.0
                ],
                [
                    0.0,
                    -0.00013,
                    4.87595
                ]
            ],
            [
                [
                    3.08858,
                    -0.00014,
                    0.0
                ],
                [
                    0.0,
                    3.29227,
                    -0.0
                ],
                [
                    0.0,
                    0.00013,
                    4.87595
                ]
            ],
            [
                [
                    -1.4901,
                    0.00039,
                    0.0
                ],
                [
                    0.0,
                    -3.34574,
                    -0.0
                ],
                [
                    0.0,
                    -5e-05,
                    -1.4262
                ]
            ],
            [
                [
                    -1.4901,
                    -0.00039,
                    0.0
                ],
                [
                    0.0,
                    -3.34619,
                    -0.0
                ],
                [
                    0.0,
                    5e-05,
                    -1.4262
                ]
            ],
            [
                [
                    -2.25047,
                    -0.0,
                    0.0
                ],
                [
                    4e-05,
                    -1.48847,
                    0.49419
                ],
                [
                    0.00014,
                    0.69032,
                    -2.94057
                ]
            ],
            [
                [
                    -2.25047,
                    -0.0,
                    0.0
                ],
                [
                    4e-05,
                    -1.48847,
                    -0.49419
                ],
                [
                    0.00014,
                    -0.69032,
                    -2.94057
                ]
            ],
            [
                [
                    -2.25033,
                    -0.0,
                    0.0
                ],
                [
                    -4e-05,
                    -1.48847,
                    0.49419
                ],
                [
                    -0.00014,
                    0.69032,
                    -2.94057
                ]
            ],
            [
                [
                    -2.25033,
                    -0.0,
                    0.0
                ],
                [
                    -4e-05,
                    -1.48847,
                    -0.49419
                ],
                [
                    -0.00014,
                    -0.69032,
                    -2.94057
                ]
            ]
        ]
    },
    "band_gap": 3.9745000000000004,
    "is_direct": false,
    "formula": "Cs2ZrO3"
}