{
    "mp_id": "mp-8922",
    "nelements": 3,
    "nsites": 9,
    "elements": [
        "Cd",
        "O",
        "Sb"
    ],
    "structure": {
        "@module": "pymatgen.core.structure",
        "@class": "Structure",
        "charge": null,
        "lattice": {
            "matrix": [
                [
                    5.27959907,
                    0.0,
                    0.0
                ],
                [
                    -2.63979953,
                    4.57226721,
                    0.0
                ],
                [
                    0.0,
                    0.0,
                    4.81533912
                ]
            ],
            "a": 5.27959907,
            "b": 5.2795993217506005,
            "c": 4.81533912,
            "alpha": 90.0,
            "beta": 90.0,
            "gamma": 119.99999835998159,
            "volume": 116.24102334009369
        },
        "sites": [
            {
                "species": [
                    {
                        "element": "Cd",
                        "occu": 1
                    }
                ],
                "abc": [
                    0.0,
                    0.0,
                    0.0
                ],
                "xyz": [
                    0.0,
                    0.0,
                    0.0
                ],
                "label": "Cd",
                "properties": {}
            },
            {
                "species": [
                    {
                        "element": "Sb",
                        "occu": 1
                    }
                ],
                "abc": [
                    0.333333,
                    0.666667,
                    0.5
                ],
                "xyz": [
                    -2.636466200023335e-06,
                    3.0481796640890697,
                    2.40766956
                ],
                "label": "Sb",
                "properties": {}
            },
            {
                "species": [
                    {
                        "element": "Sb",
                        "occu": 1
                    }
                ],
                "abc": [
                    0.666667,
                    0.333333,
                    0.5
                ],
                "xyz": [
                    2.6398021764662,
                    1.5240875459109298,
                    2.40766956
                ],
                "label": "Sb",
                "properties": {}
            },
            {
                "species": [
                    {
                        "element": "O",
                        "occu": 1
                    }
                ],
                "abc": [
                    0.36536194,
                    0.36536194,
                    0.72665724
                ],
                "xyz": [
                    0.9644822811455074,
                    1.6705324180439873,
                    3.4991010346032287
                ],
                "label": "O",
                "properties": {}
            },
            {
                "species": [
                    {
                        "element": "O",
                        "occu": 1
                    }
                ],
                "abc": [
                    0.63463806,
                    0.0,
                    0.72665724
                ],
                "xyz": [
                    3.350634511362604,
                    0.0,
                    3.4991010346032287
                ],
                "label": "O",
                "properties": {}
            },
            {
                "species": [
                    {
                        "element": "O",
                        "occu": 1
                    }
                ],
                "abc": [
                    0.0,
                    0.63463806,
                    0.72665724
                ],
                "xyz": [
                    -1.6753172525081117,
                    2.9017347919560126,
                    3.4991010346032287
                ],
                "label": "O",
                "properties": {}
            },
            {
                "species": [
                    {
                        "element": "O",
                        "occu": 1
                    }
                ],
                "abc": [
                    0.36536194,
                    0.0,
                    0.27334276
                ],
                "xyz": [
                    1.9289645586373956,
                    0.0,
                    1.3162380853967712
                ],
                "label": "O",
                "properties": {}
            },
            {
                "species": [
                    {
                        "element": "O",
                        "occu": 1
                    }
                ],
                "abc": [
                    0.0,
                    0.36536194,
                    0.27334276
                ],
                "xyz": [
                    -0.9644822774918882,
                    1.6705324180439873,
                    1.3162380853967712
                ],
                "label": "O",
                "properties": {}
            },
            {
                "species": [
                    {
                        "element": "O",
                        "occu": 1
                    }
                ],
                "abc": [
                    0.63463806,
                    0.63463806,
                    0.27334276
                ],
                "xyz": [
                    1.6753172588544925,
                    2.9017347919560126,
                    1.3162380853967712
                ],
                "label": "O",
                "properties": {}
            }
        ]
    },
    "spacegroup": {
        "source": "spglib",
        "symbol": "P-31m",
        "number": 162,
        "point_group": "-3m",
        "crystal_system": "trigonal",
        "hall": "-P 3 2"
    },
    "dielectric": {
        "epsilon_ionic": [
            [
                6.57064626,
                7e-08,
                -2.426e-05
            ],
            [
                7e-08,
                6.57084757,
                -1e-08
            ],
            [
                -2.426e-05,
                -1e-08,
                6.43839562
            ]
        ],
        "epsilon_ionic_avg": 6.5266298166666665,
        "epsilon_ionic_eig": [
            6.438395615549755,
            6.570646264425904,
            6.57084757002434
        ],
        "epsilon_electronic": [
            [
                4.4425352,
                -4.9e-07,
                0.0
            ],
            [
                -4.9e-07,
                4.44253548,
                0.0
            ],
            [
                0.0,
                0.0,
                3.83151943
            ]
        ],
        "epsilon_electronic_avg": 4.23886337,
        "epsilon_electronic_eig": [
            4.442534830392308,
            4.442535849607692,
            3.83151943
        ]
    },
    "phonon": {
        "lowest_freq": -0.04725474564818387,
        "frequency": [
            -0.04725474564818387,
            -0.022710044749674585,
            -0.022710042166851196,
            3.3511750079214395,
            3.8133696608000216,
            3.846085348051803,
            3.8460857865134224,
            6.903099556656118,
            6.903099715975937,
            8.173291306220284,
            8.813095545337681,
            8.813095961309784,
            9.360097911709287,
            9.360098721145665,
            9.98215040269327,
            15.507058376894383,
            15.507059354049902,
            15.616125791712072,
            15.616126785518606,
            16.746609095097444,
            16.74660916806748,
            16.79536601754838,
            17.302257614125732,
            19.142610603269738,
            19.142610603269738,
            19.306908153129854,
            19.316236618636044
        ]
    },
    "born_effective_charge": {
        "avg_abs_trace": 2.5530662962962962,
        "tensors": [
            [
                [
                    2.62022,
                    0.0,
                    -1e-05
                ],
                [
                    -0.0,
                    2.62026,
                    0.0
                ],
                [
                    0.0,
                    -0.0,
                    2.99846
                ]
            ],
            [
                [
                    4.9936,
                    1e-05,
                    1e-05
                ],
                [
                    -0.0,
                    4.99374,
                    0.0
                ],
                [
                    0.0,
                    -0.0,
                    3.12643
                ]
            ],
            [
                [
                    4.9936,
                    -1e-05,
                    1e-05
                ],
                [
                    -0.0,
                    4.99364,
                    0.0
                ],
                [
                    0.0,
                    -0.0,
                    3.12643
                ]
            ],
            [
                [
                    -2.28483,
                    0.31809,
                    0.23628
                ],
                [
                    0.31823,
                    -1.91756,
                    0.40923
                ],
                [
                    0.25797,
                    0.44682,
                    -1.54182
                ]
            ],
            [
                [
                    -1.73391,
                    0.0,
                    -0.47254
                ],
                [
                    -0.00011,
                    -2.46861,
                    2e-05
                ],
                [
                    -0.51595,
                    -0.0,
                    -1.54182
                ]
            ],
            [
                [
                    -2.28483,
                    -0.31809,
                    0.23628
                ],
                [
                    -0.31807,
                    -1.91765,
                    -0.40921
                ],
                [
                    0.25797,
                    -0.44682,
                    -1.54182
                ]
            ],
            [
                [
                    -1.73392,
                    0.0,
                    -0.47247
                ],
                [
                    0.00011,
                    -2.46861,
                    -2e-05
                ],
                [
                    -0.51606,
                    -0.0,
                    -1.54196
                ]
            ],
            [
                [
                    -2.28497,
                    -0.31816,
                    0.23622
                ],
                [
                    -0.31823,
                    -1.91756,
                    -0.40923
                ],
                [
                    0.25803,
                    -0.44692,
                    -1.54196
                ]
            ],
            [
                [
                    -2.28497,
                    0.31816,
                    0.23622
                ],
                [
                    0.31807,
                    -1.91765,
                    0.40921
                ],
                [
                    0.25803,
                    0.44692,
                    -1.54196
                ]
            ]
        ]
    },
    "band_gap": 1.5166999999999997,
    "is_direct": false,
    "formula": "Cd(SbO3)2"
}