{
    "mp_id": "mp-863678",
    "nelements": 4,
    "nsites": 20,
    "elements": [
        "K",
        "O",
        "Sb",
        "Zn"
    ],
    "structure": {
        "@module": "pymatgen.core.structure",
        "@class": "Structure",
        "charge": null,
        "lattice": {
            "matrix": [
                [
                    5.40580298,
                    3.12104149,
                    2.42898724
                ],
                [
                    -5.40580295,
                    3.12104153,
                    2.42898724
                ],
                [
                    -2e-08,
                    -6.24208302,
                    2.42898724
                ]
            ],
            "a": 6.698028430289104,
            "b": 6.698028424715459,
            "c": 6.698028026266771,
            "alpha": 107.62200773795098,
            "beta": 107.62200767798225,
            "gamma": 107.62201382016683,
            "volume": 245.88738072850197
        },
        "sites": [
            {
                "species": [
                    {
                        "element": "K",
                        "occu": 1
                    }
                ],
                "abc": [
                    0.51011664,
                    0.51011664,
                    0.51011664
                ],
                "xyz": [
                    5.101166556633664e-09,
                    0.0,
                    3.717200428415021
                ],
                "label": "K",
                "properties": {}
            },
            {
                "species": [
                    {
                        "element": "Zn",
                        "occu": 1
                    }
                ],
                "abc": [
                    0.02560868,
                    0.63736913,
                    0.50699578
                ],
                "xyz": [
                    -3.3070564546749823,
                    -1.0955284720955536,
                    2.8418509212469916
                ],
                "label": "Zn",
                "properties": {}
            },
            {
                "species": [
                    {
                        "element": "Zn",
                        "occu": 1
                    }
                ],
                "abc": [
                    0.50699578,
                    0.02560868,
                    0.63736913
                ],
                "xyz": [
                    2.6022838077344357,
                    -2.3162304054017797,
                    2.8418509212469916
                ],
                "label": "Zn",
                "properties": {}
            },
            {
                "species": [
                    {
                        "element": "Zn",
                        "occu": 1
                    }
                ],
                "abc": [
                    0.63736913,
                    0.50699578,
                    0.02560868
                ],
                "xyz": [
                    0.7047726586402823,
                    3.4117588774973333,
                    2.8418509212469916
                ],
                "label": "Zn",
                "properties": {}
            },
            {
                "species": [
                    {
                        "element": "Zn",
                        "occu": 1
                    }
                ],
                "abc": [
                    0.98571325,
                    0.98571325,
                    0.98571325
                ],
                "xyz": [
                    9.85713277493012e-09,
                    0.0,
                    7.18285471964679
                ],
                "label": "Zn",
                "properties": {}
            },
            {
                "species": [
                    {
                        "element": "Sb",
                        "occu": 1
                    }
                ],
                "abc": [
                    0.0672278,
                    0.1912726,
                    0.6534197
                ],
                "xyz": [
                    -0.6705617568237199,
                    -3.271909533070994,
                    2.215042286799524
                ],
                "label": "Sb",
                "properties": {}
            },
            {
                "species": [
                    {
                        "element": "Sb",
                        "occu": 1
                    }
                ],
                "abc": [
                    0.1912726,
                    0.6534197,
                    0.0672278
                ],
                "xyz": [
                    -2.4982761521203236,
                    2.2166782318683587,
                    2.215042286799524
                ],
                "label": "Sb",
                "properties": {}
            },
            {
                "species": [
                    {
                        "element": "Sb",
                        "occu": 1
                    }
                ],
                "abc": [
                    0.6534197,
                    0.0672278,
                    0.1912726
                ],
                "xyz": [
                    3.1688379180632444,
                    1.0552313012026349,
                    2.215042286799524
                ],
                "label": "Sb",
                "properties": {}
            },
            {
                "species": [
                    {
                        "element": "O",
                        "occu": 1
                    }
                ],
                "abc": [
                    0.8881987,
                    0.65830855,
                    0.96560758
                ],
                "xyz": [
                    1.2427408583797515,
                    -1.200689360933148,
                    6.10189486748477
                ],
                "label": "O",
                "properties": {}
            },
            {
                "species": [
                    {
                        "element": "O",
                        "occu": 1
                    }
                ],
                "abc": [
                    0.65830855,
                    0.96560758,
                    0.8881987
                ],
                "xyz": [
                    -1.6611980009208562,
                    -0.47590036702153693,
                    6.10189486748477
                ],
                "label": "O",
                "properties": {}
            },
            {
                "species": [
                    {
                        "element": "O",
                        "occu": 1
                    }
                ],
                "abc": [
                    0.25223619,
                    0.73541654,
                    0.39561819
                ],
                "xyz": [
                    -2.6119777617573106,
                    0.613023591256296,
                    3.359947414143061
                ],
                "label": "O",
                "properties": {}
            },
            {
                "species": [
                    {
                        "element": "O",
                        "occu": 1
                    }
                ],
                "abc": [
                    0.73541654,
                    0.39561819,
                    0.25223619
                ],
                "xyz": [
                    1.836882939852905,
                    1.9555270961571813,
                    3.359947414143061
                ],
                "label": "O",
                "properties": {}
            },
            {
                "species": [
                    {
                        "element": "O",
                        "occu": 1
                    }
                ],
                "abc": [
                    0.96560758,
                    0.8881987,
                    0.65830855
                ],
                "xyz": [
                    0.41845716766225155,
                    1.676589727954684,
                    6.101894867484769
                ],
                "label": "O",
                "properties": {}
            },
            {
                "species": [
                    {
                        "element": "O",
                        "occu": 1
                    }
                ],
                "abc": [
                    0.39561819,
                    0.25223619,
                    0.73541654
                ],
                "xyz": [
                    0.7750948357371148,
                    -2.5685506874134765,
                    3.359947414143061
                ],
                "label": "O",
                "properties": {}
            },
            {
                "species": [
                    {
                        "element": "O",
                        "occu": 1
                    }
                ],
                "abc": [
                    0.98874096,
                    0.1151437,
                    0.31758923
                ],
                "xyz": [
                    4.722494668530361,
                    1.4628514887224167,
                    3.452741940803164
                ],
                "label": "O",
                "properties": {}
            },
            {
                "species": [
                    {
                        "element": "O",
                        "occu": 1
                    }
                ],
                "abc": [
                    0.31758923,
                    0.98874096,
                    0.1151437
                ],
                "xyz": [
                    -3.6281139947068004,
                    3.3583742275492474,
                    3.452741940803164
                ],
                "label": "O",
                "properties": {}
            },
            {
                "species": [
                    {
                        "element": "O",
                        "occu": 1
                    }
                ],
                "abc": [
                    0.1151437,
                    0.31758923,
                    0.98874096
                ],
                "xyz": [
                    -1.0943806596088217,
                    -4.821225716271664,
                    3.452741940803164
                ],
                "label": "O",
                "properties": {}
            },
            {
                "species": [
                    {
                        "element": "O",
                        "occu": 1
                    }
                ],
                "abc": [
                    0.73090837,
                    0.15706485,
                    0.53355857
                ],
                "xyz": [
                    3.1020850045104633,
                    -0.5591156220609887,
                    3.4528825791643594
                ],
                "label": "O",
                "properties": {}
            },
            {
                "species": [
                    {
                        "element": "O",
                        "occu": 1
                    }
                ],
                "abc": [
                    0.53355857,
                    0.73090837,
                    0.15706485
                ],
                "xyz": [
                    -1.0668341181564505,
                    2.9660419784858285,
                    3.45288257916436
                ],
                "label": "O",
                "properties": {}
            },
            {
                "species": [
                    {
                        "element": "O",
                        "occu": 1
                    }
                ],
                "abc": [
                    0.15706485,
                    0.53355857,
                    0.73090837
                ],
                "xyz": [
                    -2.035250872138696,
                    -2.4069263564248384,
                    3.45288257916436
                ],
                "label": "O",
                "properties": {}
            }
        ]
    },
    "spacegroup": {
        "source": "spglib",
        "symbol": "R3",
        "number": 146,
        "point_group": "3",
        "crystal_system": "trigonal",
        "hall": "R 3"
    },
    "dielectric": {
        "epsilon_ionic": [
            [
                4.97675246,
                -2.883e-05,
                1.104e-05
            ],
            [
                -2.883e-05,
                4.97675747,
                -0.00010843
            ],
            [
                1.104e-05,
                -0.00010843,
                7.30222874
            ]
        ],
        "epsilon_ionic_avg": 5.75191289,
        "epsilon_ionic_eig": [
            4.976726024551798,
            4.976783900340001,
            7.302228745108202
        ],
        "epsilon_electronic": [
            [
                3.95532579,
                6.95e-06,
                0.0
            ],
            [
                -6.95e-06,
                3.95532541,
                5.5e-07
            ],
            [
                0.0,
                5.5e-07,
                4.04054298
            ]
        ],
        "epsilon_electronic_avg": 3.9837313933333327,
        "epsilon_electronic_eig": [
            3.9553255999982246,
            3.9553255999982246,
            4.040542980003549
        ]
    },
    "phonon": {
        "lowest_freq": -0.055804700600256045,
        "frequency": [
            -0.055804700600256045,
            -0.05580469775354085,
            -0.028100447048769583,
            2.3918966518245517,
            3.560197374117096,
            3.5635161553420085,
            3.5635162993683704,
            3.816399276357235,
            3.8163994140420616,
            3.823758971558827,
            4.06359073345009,
            4.224647833535569,
            4.224648021551337,
            4.607936075814016,
            4.858458264809538,
            5.157690345297859,
            5.157690440069012,
            6.046592983159039,
            6.046593225675902,
            6.317117779854572,
            6.317117992641598,
            6.695789511231865,
            7.236280459073817,
            7.236280746155155,
            7.642957754367831,
            7.919740575634438,
            7.919740683643084,
            8.502220785316302,
            8.758387165724038,
            8.75838740291395,
            8.952094981886344,
            9.559723958387131,
            9.852576094340247,
            9.852576292785914,
            11.525229018609835,
            11.525229707793887,
            12.534564102721879,
            12.534564463436645,
            13.684303035933995,
            14.034877640151187,
            15.054538048935061,
            15.054538852533694,
            15.108948137741681,
            15.467889242504727,
            15.467889787621402,
            16.096810785985365,
            16.11828409837111,
            16.11828432581479,
            17.26799065706715,
            17.26799178933611,
            17.62789831006998,
            18.758975652137988,
            19.06559286122539,
            19.065593886738217,
            19.687461138224805,
            19.977309845406296,
            19.977310885286578,
            20.889562864807242,
            20.889564385758934,
            21.0501631795263
        ]
    },
    "born_effective_charge": {
        "avg_abs_trace": 2.329899,
        "tensors": [
            [
                [
                    1.29697,
                    -0.0024,
                    -1e-05
                ],
                [
                    0.00239,
                    1.29696,
                    -0.00011
                ],
                [
                    0.0,
                    0.0,
                    1.23948
                ]
            ],
            [
                [
                    2.05858,
                    -0.04077,
                    -0.20078
                ],
                [
                    -0.1721,
                    2.21731,
                    0.10758
                ],
                [
                    -0.2136,
                    -0.04429,
                    2.12943
                ]
            ],
            [
                [
                    2.08543,
                    0.18762,
                    0.00724
                ],
                [
                    0.05632,
                    2.19045,
                    -0.22767
                ],
                [
                    0.14515,
                    -0.16284,
                    2.12943
                ]
            ],
            [
                [
                    2.2698,
                    0.05015,
                    0.19357
                ],
                [
                    -0.0812,
                    2.00606,
                    0.12013
                ],
                [
                    0.06845,
                    0.20713,
                    2.12943
                ]
            ],
            [
                [
                    2.67527,
                    -0.06418,
                    -1e-05
                ],
                [
                    0.06415,
                    2.67525,
                    -1e-05
                ],
                [
                    0.0,
                    0.0,
                    1.83332
                ]
            ],
            [
                [
                    4.52037,
                    -0.17815,
                    0.01455
                ],
                [
                    -0.11851,
                    3.83902,
                    -0.08798
                ],
                [
                    0.40976,
                    -0.33546,
                    4.8619
                ]
            ],
            [
                [
                    4.1378,
                    0.33937,
                    -0.08347
                ],
                [
                    0.39901,
                    4.22156,
                    0.03138
                ],
                [
                    -0.4954,
                    -0.18713,
                    4.8619
                ]
            ],
            [
                [
                    3.8809,
                    -0.2507,
                    0.06893
                ],
                [
                    -0.19104,
                    4.47848,
                    0.05661
                ],
                [
                    0.08564,
                    0.52259,
                    4.8619
                ]
            ],
            [
                [
                    -2.18239,
                    -0.12175,
                    -0.33141
                ],
                [
                    -0.22273,
                    -1.84731,
                    -0.41821
                ],
                [
                    -0.2059,
                    -0.44518,
                    -1.70829
                ]
            ],
            [
                [
                    -1.7819,
                    -0.00848,
                    -0.19648
                ],
                [
                    -0.10944,
                    -2.24782,
                    0.49613
                ],
                [
                    -0.28259,
                    0.4009,
                    -1.70829
                ]
            ],
            [
                [
                    -1.34155,
                    -0.2948,
                    0.09154
                ],
                [
                    -0.27541,
                    -2.3478,
                    0.36724
                ],
                [
                    0.0675,
                    0.28199,
                    -2.11698
                ]
            ],
            [
                [
                    -1.84936,
                    0.56859,
                    0.2723
                ],
                [
                    0.58795,
                    -1.84004,
                    -0.26294
                ],
                [
                    0.21046,
                    -0.19945,
                    -2.11698
                ]
            ],
            [
                [
                    -2.08028,
                    0.28172,
                    0.5279
                ],
                [
                    0.1807,
                    -1.94949,
                    -0.07787
                ],
                [
                    0.48849,
                    0.04428,
                    -1.70829
                ]
            ],
            [
                [
                    -2.34318,
                    -0.30283,
                    -0.36382
                ],
                [
                    -0.2835,
                    -1.34621,
                    -0.10434
                ],
                [
                    -0.27796,
                    -0.08254,
                    -2.11698
                ]
            ],
            [
                [
                    -1.7437,
                    -0.15241,
                    -0.33169
                ],
                [
                    -0.05441,
                    -2.04827,
                    0.65758
                ],
                [
                    -0.42886,
                    0.55191,
                    -2.12759
                ]
            ],
            [
                [
                    -2.06172,
                    -0.12911,
                    -0.40369
                ],
                [
                    -0.03115,
                    -1.73028,
                    -0.61607
                ],
                [
                    -0.26354,
                    -0.64736,
                    -2.12759
                ]
            ],
            [
                [
                    -1.88256,
                    0.13462,
                    0.73538
                ],
                [
                    0.23253,
                    -1.90941,
                    -0.04153
                ],
                [
                    0.6924,
                    0.09545,
                    -2.12759
                ]
            ],
            [
                [
                    -1.67864,
                    -0.18694,
                    -0.44207
                ],
                [
                    -0.17598,
                    -2.09366,
                    0.15467
                ],
                [
                    -0.55809,
                    0.23459,
                    -2.06273
                ]
            ],
            [
                [
                    -2.14704,
                    -0.09451,
                    0.08708
                ],
                [
                    -0.08353,
                    -1.62527,
                    -0.46013
                ],
                [
                    0.07588,
                    -0.60062,
                    -2.06273
                ]
            ],
            [
                [
                    -1.83277,
                    0.26495,
                    0.35495
                ],
                [
                    0.27595,
                    -1.93952,
                    0.30552
                ],
                [
                    0.48221,
                    0.36602,
                    -2.06273
                ]
            ]
        ]
    },
    "band_gap": 2.0145999999999997,
    "is_direct": false,
    "formula": "KZn4(SbO4)3"
}