{
    "mp_id": "mp-8666",
    "nelements": 3,
    "nsites": 12,
    "elements": [
        "Ag",
        "Cs",
        "O"
    ],
    "structure": {
        "@module": "pymatgen.core.structure",
        "@class": "Structure",
        "charge": null,
        "lattice": {
            "matrix": [
                [
                    -5.05401939,
                    5.05401939,
                    3.06803697
                ],
                [
                    5.05401939,
                    -5.05401939,
                    3.06803697
                ],
                [
                    5.05401939,
                    5.05401939,
                    -3.06803697
                ]
            ],
            "a": 7.7781151211767705,
            "b": 7.7781151211767705,
            "c": 7.7781151211767705,
            "alpha": 98.9508239696728,
            "beta": 98.9508239696728,
            "gamma": 133.53729717570903,
            "volume": 313.46884771185626
        },
        "sites": [
            {
                "species": [
                    {
                        "element": "Cs",
                        "occu": 1
                    }
                ],
                "abc": [
                    0.5,
                    0.19355798,
                    0.69355798
                ],
                "xyz": [
                    1.956491568018464,
                    5.05401939,
                    0.0
                ],
                "label": "Cs",
                "properties": {}
            },
            {
                "species": [
                    {
                        "element": "Cs",
                        "occu": 1
                    }
                ],
                "abc": [
                    0.19355798,
                    0.5,
                    0.69355798
                ],
                "xyz": [
                    5.05401939,
                    1.956491568018464,
                    0.0
                ],
                "label": "Cs",
                "properties": {}
            },
            {
                "species": [
                    {
                        "element": "Cs",
                        "occu": 1
                    }
                ],
                "abc": [
                    0.5,
                    0.80644202,
                    0.30644202
                ],
                "xyz": [
                    3.0975278219815356,
                    -2.220446049250313e-16,
                    3.0680369700000005
                ],
                "label": "Cs",
                "properties": {}
            },
            {
                "species": [
                    {
                        "element": "Cs",
                        "occu": 1
                    }
                ],
                "abc": [
                    0.80644202,
                    0.5,
                    0.30644202
                ],
                "xyz": [
                    -2.220446049250313e-16,
                    3.0975278219815356,
                    3.0680369700000005
                ],
                "label": "Cs",
                "properties": {}
            },
            {
                "species": [
                    {
                        "element": "Ag",
                        "occu": 1
                    }
                ],
                "abc": [
                    0.14066387,
                    0.85933613,
                    0.0
                ],
                "xyz": [
                    3.6321835370951208,
                    -3.6321835370951208,
                    3.06803697
                ],
                "label": "Ag",
                "properties": {}
            },
            {
                "species": [
                    {
                        "element": "Ag",
                        "occu": 1
                    }
                ],
                "abc": [
                    0.85933613,
                    0.14066387,
                    0.0
                ],
                "xyz": [
                    -3.6321835370951208,
                    3.6321835370951208,
                    3.06803697
                ],
                "label": "Ag",
                "properties": {}
            },
            {
                "species": [
                    {
                        "element": "Ag",
                        "occu": 1
                    }
                ],
                "abc": [
                    0.14066387,
                    0.14066387,
                    0.28132674
                ],
                "xyz": [
                    1.4218307988854886,
                    1.4218307988854886,
                    3.0680369699220833e-06
                ],
                "label": "Ag",
                "properties": {}
            },
            {
                "species": [
                    {
                        "element": "Ag",
                        "occu": 1
                    }
                ],
                "abc": [
                    0.85933613,
                    0.85933613,
                    0.71867326
                ],
                "xyz": [
                    3.632188591114511,
                    3.632188591114511,
                    3.06803390196303
                ],
                "label": "Ag",
                "properties": {}
            },
            {
                "species": [
                    {
                        "element": "O",
                        "occu": 1
                    }
                ],
                "abc": [
                    0.0,
                    0.28416448,
                    0.28416448
                ],
                "xyz": [
                    2.872345583738534,
                    0.0,
                    0.0
                ],
                "label": "O",
                "properties": {}
            },
            {
                "species": [
                    {
                        "element": "O",
                        "occu": 1
                    }
                ],
                "abc": [
                    0.28416448,
                    0.0,
                    0.28416448
                ],
                "xyz": [
                    0.0,
                    2.872345583738534,
                    0.0
                ],
                "label": "O",
                "properties": {}
            },
            {
                "species": [
                    {
                        "element": "O",
                        "occu": 1
                    }
                ],
                "abc": [
                    0.71583552,
                    0.0,
                    0.71583552
                ],
                "xyz": [
                    0.0,
                    7.235693196261464,
                    0.0
                ],
                "label": "O",
                "properties": {}
            },
            {
                "species": [
                    {
                        "element": "O",
                        "occu": 1
                    }
                ],
                "abc": [
                    0.0,
                    0.71583552,
                    0.71583552
                ],
                "xyz": [
                    7.235693196261464,
                    0.0,
                    0.0
                ],
                "label": "O",
                "properties": {}
            }
        ]
    },
    "spacegroup": {
        "source": "spglib",
        "symbol": "I4/mmm",
        "number": 139,
        "point_group": "4/mmm",
        "crystal_system": "tetragonal",
        "hall": "-I 4 2"
    },
    "dielectric": {
        "epsilon_ionic": [
            [
                3.4989998,
                -8e-08,
                0.0
            ],
            [
                -8e-08,
                3.49897767,
                -0.0
            ],
            [
                0.0,
                -0.0,
                4.14953779
            ]
        ],
        "epsilon_ionic_avg": 3.7158384200000003,
        "epsilon_ionic_eig": [
            3.498999800289196,
            3.4989776697108037,
            4.14953779
        ],
        "epsilon_electronic": [
            [
                4.01297093,
                0.0,
                0.0
            ],
            [
                0.0,
                4.01297093,
                -0.0
            ],
            [
                0.0,
                -0.0,
                3.32110497
            ]
        ],
        "epsilon_electronic_avg": 3.7823489433333335,
        "epsilon_electronic_eig": [
            4.01297093,
            4.01297093,
            3.32110497
        ]
    },
    "phonon": {
        "lowest_freq": -0.044560052306066286,
        "frequency": [
            -0.044560052306066286,
            -0.044560052306066286,
            -0.011499007119345251,
            1.0246502537272701,
            1.0246502537272701,
            1.2545826495402213,
            1.370940574075518,
            1.6195978189348808,
            1.644115335932187,
            1.644115335932187,
            1.8842509293046255,
            2.1806465166416635,
            2.2214358631877245,
            2.2220106545536638,
            2.294953851031618,
            2.294953851031618,
            2.322894524757185,
            2.322894524757185,
            2.4940878096860155,
            2.501601834091478,
            3.329315904331046,
            3.3893306280882487,
            3.6318327608295635,
            3.946750844633828,
            3.946750844633828,
            5.403657518837082,
            5.403657518837082,
            6.524568188431738,
            12.477893162974734,
            12.477893162974734,
            12.919483110754209,
            13.414295649520339,
            13.665604360900744,
            14.576179037596658,
            14.576179037596658,
            14.668535535385583
        ]
    },
    "born_effective_charge": {
        "avg_abs_trace": 1.20397,
        "tensors": [
            [
                [
                    1.08124,
                    -0.0,
                    0.0
                ],
                [
                    -0.0,
                    1.53606,
                    0.0
                ],
                [
                    4e-05,
                    0.0,
                    1.51988
                ]
            ],
            [
                [
                    1.53597,
                    9e-05,
                    0.0
                ],
                [
                    0.0,
                    1.08113,
                    0.0
                ],
                [
                    -0.0,
                    4e-05,
                    1.51988
                ]
            ],
            [
                [
                    1.08116,
                    -0.0,
                    -0.0
                ],
                [
                    0.0,
                    1.53606,
                    -0.0
                ],
                [
                    -4e-05,
                    0.0,
                    1.51988
                ]
            ],
            [
                [
                    1.53597,
                    -9e-05,
                    -0.0
                ],
                [
                    0.0,
                    1.0811,
                    -0.0
                ],
                [
                    -0.0,
                    -4e-05,
                    1.51988
                ]
            ],
            [
                [
                    0.74351,
                    0.86325,
                    0.0
                ],
                [
                    0.86321,
                    0.74352,
                    0.0
                ],
                [
                    -2e-05,
                    2e-05,
                    -0.20628
                ]
            ],
            [
                [
                    0.74358,
                    0.86312,
                    0.0
                ],
                [
                    0.86319,
                    0.74357,
                    0.0
                ],
                [
                    2e-05,
                    -2e-05,
                    -0.20628
                ]
            ],
            [
                [
                    0.74358,
                    -0.86312,
                    -0.0
                ],
                [
                    -0.86321,
                    0.74352,
                    -0.0
                ],
                [
                    2e-05,
                    2e-05,
                    -0.20628
                ]
            ],
            [
                [
                    0.74351,
                    -0.86325,
                    0.0
                ],
                [
                    -0.86319,
                    0.74357,
                    -0.0
                ],
                [
                    -2e-05,
                    -2e-05,
                    -0.20628
                ]
            ],
            [
                [
                    -2.16759,
                    -0.0,
                    -0.0
                ],
                [
                    -0.00027,
                    -1.93651,
                    -0.0
                ],
                [
                    3e-05,
                    -0.0,
                    -1.3136
                ]
            ],
            [
                [
                    -1.9365,
                    -0.00043,
                    0.0
                ],
                [
                    -0.0,
                    -2.16758,
                    0.0
                ],
                [
                    -0.0,
                    3e-05,
                    -1.3136
                ]
            ],
            [
                [
                    -1.9365,
                    0.00043,
                    0.0
                ],
                [
                    0.0,
                    -2.16795,
                    -0.0
                ],
                [
                    -0.0,
                    -3e-05,
                    -1.3136
                ]
            ],
            [
                [
                    -2.16793,
                    -0.0,
                    0.0
                ],
                [
                    0.00027,
                    -1.93651,
                    -0.0
                ],
                [
                    -3e-05,
                    0.0,
                    -1.3136
                ]
            ]
        ]
    },
    "band_gap": 1.6006999999999998,
    "is_direct": true,
    "formula": "CsAgO"
}