{
    "mp_id": "mp-8187",
    "nelements": 3,
    "nsites": 10,
    "elements": [
        "K",
        "O",
        "Zn"
    ],
    "structure": {
        "@module": "pymatgen.core.structure",
        "@class": "Structure",
        "charge": null,
        "lattice": {
            "matrix": [
                [
                    -2.98158392,
                    5.25227654,
                    2.65199809
                ],
                [
                    2.98158392,
                    -5.25227654,
                    2.65199809
                ],
                [
                    2.98158392,
                    5.25227654,
                    -2.65199809
                ]
            ],
            "a": 6.596161413579916,
            "b": 6.596161413579916,
            "c": 6.596161413579916,
            "alpha": 126.2535342539159,
            "beta": 74.45065366534617,
            "gamma": 132.58699066076048,
            "volume": 166.12225589861816
        },
        "sites": [
            {
                "species": [
                    {
                        "element": "K",
                        "occu": 1
                    }
                ],
                "abc": [
                    0.34766068,
                    0.85882532,
                    0.206485
                ],
                "xyz": [
                    2.1397326268177888,
                    -1.600261725387646,
                    2.65200074199809
                ],
                "label": "K",
                "properties": {}
            },
            {
                "species": [
                    {
                        "element": "K",
                        "occu": 1
                    }
                ],
                "abc": [
                    0.65233932,
                    0.14117468,
                    0.793515
                ],
                "xyz": [
                    0.8418512931822115,
                    6.852538265387645,
                    -2.651998090463792e-06
                ],
                "label": "K",
                "properties": {}
            },
            {
                "species": [
                    {
                        "element": "K",
                        "occu": 1
                    }
                ],
                "abc": [
                    0.84766068,
                    0.64117468,
                    0.48883535
                ],
                "xyz": [
                    0.8418482817824517,
                    3.652020014366129,
                    2.651998116519981
                ],
                "label": "K",
                "properties": {}
            },
            {
                "species": [
                    {
                        "element": "K",
                        "occu": 1
                    }
                ],
                "abc": [
                    0.15233932,
                    0.35882532,
                    0.51116465
                ],
                "xyz": [
                    2.139735638217548,
                    1.6002565256338712,
                    -2.6519980877992566e-08
                ],
                "label": "K",
                "properties": {}
            },
            {
                "species": [
                    {
                        "element": "Zn",
                        "occu": 1
                    }
                ],
                "abc": [
                    0.75,
                    0.75,
                    0.0
                ],
                "xyz": [
                    0.0,
                    0.0,
                    3.9779971350000003
                ],
                "label": "Zn",
                "properties": {}
            },
            {
                "species": [
                    {
                        "element": "Zn",
                        "occu": 1
                    }
                ],
                "abc": [
                    0.25,
                    0.25,
                    0.0
                ],
                "xyz": [
                    0.0,
                    0.0,
                    1.325999045
                ],
                "label": "Zn",
                "properties": {}
            },
            {
                "species": [
                    {
                        "element": "O",
                        "occu": 1
                    }
                ],
                "abc": [
                    0.40563739,
                    0.31969522,
                    0.72533361
                ],
                "xyz": [
                    1.9063992360896447,
                    4.261044746764201,
                    -2.651998089797658e-06
                ],
                "label": "O",
                "properties": {}
            },
            {
                "species": [
                    {
                        "element": "O",
                        "occu": 1
                    }
                ],
                "abc": [
                    0.59436261,
                    0.68030478,
                    0.27466639
                ],
                "xyz": [
                    1.0751846839103556,
                    0.9912317932357984,
                    2.6520007419980907
                ],
                "label": "O",
                "properties": {}
            },
            {
                "species": [
                    {
                        "element": "O",
                        "occu": 1
                    }
                ],
                "abc": [
                    0.09436261,
                    0.81969522,
                    0.91405783
                ],
                "xyz": [
                    4.887980174505724,
                    0.9912370455123387,
                    0.0
                ],
                "label": "O",
                "properties": {}
            },
            {
                "species": [
                    {
                        "element": "O",
                        "occu": 1
                    }
                ],
                "abc": [
                    0.90563739,
                    0.18030478,
                    0.08594217
                ],
                "xyz": [
                    -1.9063962545057245,
                    4.261039494487662,
                    2.65199809
                ],
                "label": "O",
                "properties": {}
            }
        ]
    },
    "spacegroup": {
        "source": "spglib",
        "symbol": "Ibam",
        "number": 72,
        "point_group": "mmm",
        "crystal_system": "orthorhombic",
        "hall": "-I 2 2c"
    },
    "dielectric": {
        "epsilon_ionic": [
            [
                6.33247883,
                0.0,
                -0.0
            ],
            [
                0.0,
                3.97998589,
                0.0
            ],
            [
                -0.0,
                0.0,
                14.01759481
            ]
        ],
        "epsilon_ionic_avg": 8.110019843333333,
        "epsilon_ionic_eig": [
            6.33247883,
            3.97998589,
            14.01759481
        ],
        "epsilon_electronic": [
            [
                3.20587358,
                -0.0,
                0.0
            ],
            [
                -0.0,
                3.10678691,
                0.0
            ],
            [
                0.0,
                0.0,
                3.45520421
            ]
        ],
        "epsilon_electronic_avg": 3.2559549000000003,
        "epsilon_electronic_eig": [
            3.20587358,
            3.10678691,
            3.45520421
        ]
    },
    "phonon": {
        "lowest_freq": -0.09533162948269576,
        "frequency": [
            -0.09533162948269576,
            -0.08177506143403061,
            -0.05945989430062025,
            2.0718438371411114,
            2.3062125451790774,
            2.8539089970784786,
            3.4849488185733075,
            3.674482875840107,
            3.9215432334072795,
            4.180574250582415,
            4.253489444609699,
            4.588776166900547,
            4.998591917918066,
            5.037490451187248,
            5.441896310395453,
            5.466745332175237,
            5.639864123044286,
            6.0590719075137125,
            7.381583590405267,
            7.501152355008555,
            7.9956734064872865,
            8.35100919701873,
            9.762095532784778,
            10.115803205580503,
            10.585634582648822,
            11.254395282068133,
            11.457545724985266,
            12.983110794848855,
            14.041285933388213,
            14.664998234254007
        ]
    },
    "born_effective_charge": {
        "avg_abs_trace": 1.5741193333333334,
        "tensors": [
            [
                [
                    1.15437,
                    -0.13406,
                    -0.0
                ],
                [
                    -0.06862,
                    1.21216,
                    0.0
                ],
                [
                    -3e-05,
                    2e-05,
                    1.07425
                ]
            ],
            [
                [
                    1.15433,
                    -0.13402,
                    -0.0
                ],
                [
                    -0.06861,
                    1.21212,
                    -0.0
                ],
                [
                    3e-05,
                    -2e-05,
                    1.07425
                ]
            ],
            [
                [
                    1.15433,
                    0.13402,
                    -0.0
                ],
                [
                    0.06862,
                    1.21216,
                    0.0
                ],
                [
                    3e-05,
                    2e-05,
                    1.07425
                ]
            ],
            [
                [
                    1.15437,
                    0.13406,
                    0.0
                ],
                [
                    0.06861,
                    1.21212,
                    0.0
                ],
                [
                    -3e-05,
                    -2e-05,
                    1.07425
                ]
            ],
            [
                [
                    1.40666,
                    0.0,
                    -0.0
                ],
                [
                    0.0,
                    1.26472,
                    0.0
                ],
                [
                    0.0,
                    -0.0,
                    2.25304
                ]
            ],
            [
                [
                    1.40666,
                    0.0,
                    -0.0
                ],
                [
                    0.0,
                    1.26472,
                    0.0
                ],
                [
                    0.0,
                    -0.0,
                    2.25304
                ]
            ],
            [
                [
                    -1.85769,
                    -0.36158,
                    0.0
                ],
                [
                    -0.3519,
                    -1.84447,
                    -0.0
                ],
                [
                    -8e-05,
                    -5e-05,
                    -2.20077
                ]
            ],
            [
                [
                    -1.85767,
                    -0.36167,
                    0.0
                ],
                [
                    -0.3519,
                    -1.84452,
                    -0.0
                ],
                [
                    8e-05,
                    5e-05,
                    -2.20077
                ]
            ],
            [
                [
                    -1.85769,
                    0.36158,
                    -0.0
                ],
                [
                    0.3519,
                    -1.84452,
                    0.0
                ],
                [
                    -8e-05,
                    5e-05,
                    -2.20077
                ]
            ],
            [
                [
                    -1.85767,
                    0.36167,
                    -0.0
                ],
                [
                    0.3519,
                    -1.84447,
                    -0.0
                ],
                [
                    8e-05,
                    -5e-05,
                    -2.20077
                ]
            ]
        ]
    },
    "band_gap": 2.3667,
    "is_direct": false,
    "formula": "K2ZnO2"
}