{
    "mp_id": "mp-8216",
    "nelements": 3,
    "nsites": 20,
    "elements": [
        "B",
        "La",
        "O"
    ],
    "structure": {
        "@module": "pymatgen.core.structure",
        "@class": "Structure",
        "charge": null,
        "lattice": {
            "matrix": [
                [
                    5.78870416,
                    0.0,
                    0.0
                ],
                [
                    0.0,
                    5.08798781,
                    0.0
                ],
                [
                    0.0,
                    0.0,
                    8.2178778
                ]
            ],
            "a": 5.78870416,
            "b": 5.08798781,
            "c": 8.2178778,
            "alpha": 90.0,
            "beta": 90.0,
            "gamma": 90.0,
            "volume": 242.03997312716973
        },
        "sites": [
            {
                "species": [
                    {
                        "element": "La",
                        "occu": 1
                    }
                ],
                "abc": [
                    0.25643764,
                    0.25,
                    0.41544338
                ],
                "xyz": [
                    1.4844416334485826,
                    1.2719969525,
                    3.414062929658964
                ],
                "label": "La",
                "properties": {}
            },
            {
                "species": [
                    {
                        "element": "La",
                        "occu": 1
                    }
                ],
                "abc": [
                    0.74356236,
                    0.75,
                    0.58455662
                ],
                "xyz": [
                    4.304262526551417,
                    3.8159908575,
                    4.803814870341036
                ],
                "label": "La",
                "properties": {}
            },
            {
                "species": [
                    {
                        "element": "La",
                        "occu": 1
                    }
                ],
                "abc": [
                    0.75643764,
                    0.25,
                    0.08455662
                ],
                "xyz": [
                    4.378793713448583,
                    1.2719969525,
                    0.694875970341036
                ],
                "label": "La",
                "properties": {}
            },
            {
                "species": [
                    {
                        "element": "La",
                        "occu": 1
                    }
                ],
                "abc": [
                    0.24356236,
                    0.75,
                    0.91544338
                ],
                "xyz": [
                    1.4099104465514176,
                    3.8159908575,
                    7.5230018296589645
                ],
                "label": "La",
                "properties": {}
            },
            {
                "species": [
                    {
                        "element": "B",
                        "occu": 1
                    }
                ],
                "abc": [
                    0.4166955,
                    0.25,
                    0.76033053
                ],
                "xyz": [
                    2.41212697430328,
                    1.2719969525,
                    6.248303383149234
                ],
                "label": "B",
                "properties": {}
            },
            {
                "species": [
                    {
                        "element": "B",
                        "occu": 1
                    }
                ],
                "abc": [
                    0.5833045,
                    0.75,
                    0.23966947
                ],
                "xyz": [
                    3.37657718569672,
                    3.8159908575,
                    1.969574416850766
                ],
                "label": "B",
                "properties": {}
            },
            {
                "species": [
                    {
                        "element": "B",
                        "occu": 1
                    }
                ],
                "abc": [
                    0.9166955,
                    0.25,
                    0.73966947
                ],
                "xyz": [
                    5.30647905430328,
                    1.2719969525,
                    6.078513316850766
                ],
                "label": "B",
                "properties": {}
            },
            {
                "species": [
                    {
                        "element": "B",
                        "occu": 1
                    }
                ],
                "abc": [
                    0.0833045,
                    0.75,
                    0.26033053
                ],
                "xyz": [
                    0.48222510569672,
                    3.8159908575,
                    2.139364483149234
                ],
                "label": "B",
                "properties": {}
            },
            {
                "species": [
                    {
                        "element": "O",
                        "occu": 1
                    }
                ],
                "abc": [
                    0.09702948,
                    0.75,
                    0.42736333
                ],
                "xyz": [
                    0.5616749545186368,
                    3.8159908575,
                    3.5120196221410738
                ],
                "label": "O",
                "properties": {}
            },
            {
                "species": [
                    {
                        "element": "O",
                        "occu": 1
                    }
                ],
                "abc": [
                    0.90297052,
                    0.25,
                    0.57263667
                ],
                "xyz": [
                    5.227029205481363,
                    1.2719969525,
                    4.705858177858926
                ],
                "label": "O",
                "properties": {}
            },
            {
                "species": [
                    {
                        "element": "O",
                        "occu": 1
                    }
                ],
                "abc": [
                    0.59702948,
                    0.75,
                    0.07263667
                ],
                "xyz": [
                    3.456027034518637,
                    3.8159908575,
                    0.5969192778589261
                ],
                "label": "O",
                "properties": {}
            },
            {
                "species": [
                    {
                        "element": "O",
                        "occu": 1
                    }
                ],
                "abc": [
                    0.40297052,
                    0.25,
                    0.92736333
                ],
                "xyz": [
                    2.332677125481363,
                    1.2719969525,
                    7.620958522141074
                ],
                "label": "O",
                "properties": {}
            },
            {
                "species": [
                    {
                        "element": "O",
                        "occu": 1
                    }
                ],
                "abc": [
                    0.08804756,
                    0.98398132,
                    0.17537864
                ],
                "xyz": [
                    0.5096812768498495,
                    5.00648496142771,
                    1.441240232250192
                ],
                "label": "O",
                "properties": {}
            },
            {
                "species": [
                    {
                        "element": "O",
                        "occu": 1
                    }
                ],
                "abc": [
                    0.91195244,
                    0.48398132,
                    0.82462136
                ],
                "xyz": [
                    5.279022883150151,
                    2.462491056427709,
                    6.776637567749808
                ],
                "label": "O",
                "properties": {}
            },
            {
                "species": [
                    {
                        "element": "O",
                        "occu": 1
                    }
                ],
                "abc": [
                    0.58804756,
                    0.51601868,
                    0.32462136
                ],
                "xyz": [
                    3.4040333568498498,
                    2.625496753572291,
                    2.6676986677498085
                ],
                "label": "O",
                "properties": {}
            },
            {
                "species": [
                    {
                        "element": "O",
                        "occu": 1
                    }
                ],
                "abc": [
                    0.41195244,
                    0.01601868,
                    0.67537864
                ],
                "xyz": [
                    2.3846708031501502,
                    0.08150284857229081,
                    5.550179132250192
                ],
                "label": "O",
                "properties": {}
            },
            {
                "species": [
                    {
                        "element": "O",
                        "occu": 1
                    }
                ],
                "abc": [
                    0.91195244,
                    0.01601868,
                    0.82462136
                ],
                "xyz": [
                    5.279022883150151,
                    0.08150284857229081,
                    6.776637567749808
                ],
                "label": "O",
                "properties": {}
            },
            {
                "species": [
                    {
                        "element": "O",
                        "occu": 1
                    }
                ],
                "abc": [
                    0.08804756,
                    0.51601868,
                    0.17537864
                ],
                "xyz": [
                    0.5096812768498495,
                    2.625496753572291,
                    1.441240232250192
                ],
                "label": "O",
                "properties": {}
            },
            {
                "species": [
                    {
                        "element": "O",
                        "occu": 1
                    }
                ],
                "abc": [
                    0.41195244,
                    0.48398132,
                    0.67537864
                ],
                "xyz": [
                    2.3846708031501502,
                    2.462491056427709,
                    5.550179132250192
                ],
                "label": "O",
                "properties": {}
            },
            {
                "species": [
                    {
                        "element": "O",
                        "occu": 1
                    }
                ],
                "abc": [
                    0.58804756,
                    0.98398132,
                    0.32462136
                ],
                "xyz": [
                    3.4040333568498498,
                    5.00648496142771,
                    2.6676986677498085
                ],
                "label": "O",
                "properties": {}
            }
        ]
    },
    "spacegroup": {
        "source": "spglib",
        "symbol": "Pnma",
        "number": 62,
        "point_group": "mmm",
        "crystal_system": "orthorhombic",
        "hall": "-P 2ac 2n"
    },
    "dielectric": {
        "epsilon_ionic": [
            [
                9.70484567,
                5e-08,
                -2e-08
            ],
            [
                5e-08,
                12.12827227,
                -5e-08
            ],
            [
                -2e-08,
                -5e-08,
                10.73964611
            ]
        ],
        "epsilon_ionic_avg": 10.857588016666666,
        "epsilon_ionic_eig": [
            9.704845669999996,
            12.128272270000004,
            10.739646109999997
        ],
        "epsilon_electronic": [
            [
                3.60175217,
                0.0,
                0.0
            ],
            [
                0.0,
                4.0404944,
                0.0
            ],
            [
                0.0,
                0.0,
                4.01709948
            ]
        ],
        "epsilon_electronic_avg": 3.886448683333333,
        "epsilon_electronic_eig": [
            3.60175217,
            4.0404944,
            4.01709948
        ]
    },
    "phonon": {
        "lowest_freq": -0.23097042420379896,
        "frequency": [
            -0.23097042420379896,
            -0.0430608855343568,
            -0.03277376180835369,
            3.2030569220919554,
            3.248232827468045,
            3.343266333639482,
            3.420043593710096,
            3.5975859251196787,
            3.629786911504057,
            3.698146846535301,
            4.206281713148988,
            4.2825140327794395,
            5.008518137063177,
            5.05076449759957,
            5.1198848286110135,
            5.295743913182216,
            5.352365069220622,
            5.376749377207119,
            5.7043834019799755,
            5.773204948410083,
            6.117927644048367,
            6.312783484764709,
            6.323072236581505,
            6.435210428662332,
            6.484255711297638,
            6.711873933551513,
            7.001198286391914,
            7.3688165235724155,
            7.526422349141362,
            7.940286101304776,
            8.077694814743888,
            8.737673628114093,
            9.25928755012156,
            9.711391913864196,
            10.035421869229737,
            10.268919887702033,
            16.282127487967735,
            16.581803107935997,
            16.691744703939133,
            16.83848523933437,
            17.086219223180798,
            17.22595829267308,
            17.90156421765155,
            18.12060681240183,
            19.896162767615625,
            19.91497508505063,
            21.807523931317213,
            21.932197623844292,
            27.363292891081567,
            27.562232605703514,
            27.657759212840464,
            27.661277893765725,
            36.65294310706311,
            36.98957839079121,
            37.47720792213495,
            37.66434803201303,
            37.81679739164042,
            37.96531812084204,
            38.06352574604482,
            40.587207405574105
        ]
    },
    "born_effective_charge": {
        "avg_abs_trace": 2.4685346666666663,
        "tensors": [
            [
                [
                    4.15527,
                    0.0,
                    0.14207
                ],
                [
                    -0.00027,
                    4.21264,
                    0.00015
                ],
                [
                    -0.20914,
                    -0.0,
                    4.20235
                ]
            ],
            [
                [
                    4.1554,
                    0.0,
                    0.14204
                ],
                [
                    0.00027,
                    4.21264,
                    -0.00015
                ],
                [
                    -0.20916,
                    -0.0,
                    4.20276
                ]
            ],
            [
                [
                    4.15527,
                    0.0,
                    -0.14207
                ],
                [
                    -0.00027,
                    4.21264,
                    -0.00015
                ],
                [
                    0.20916,
                    -0.0,
                    4.20276
                ]
            ],
            [
                [
                    4.1554,
                    0.0,
                    -0.14204
                ],
                [
                    0.00027,
                    4.21264,
                    0.00015
                ],
                [
                    0.20914,
                    -0.0,
                    4.20235
                ]
            ],
            [
                [
                    0.67823,
                    0.0,
                    0.04803
                ],
                [
                    -3e-05,
                    2.62355,
                    0.00016
                ],
                [
                    -0.02071,
                    -0.0,
                    2.64174
                ]
            ],
            [
                [
                    0.67813,
                    0.0,
                    0.04803
                ],
                [
                    3e-05,
                    2.62355,
                    -0.00016
                ],
                [
                    -0.02072,
                    -0.0,
                    2.64177
                ]
            ],
            [
                [
                    0.67823,
                    0.0,
                    -0.04803
                ],
                [
                    -3e-05,
                    2.62355,
                    -0.00016
                ],
                [
                    0.02072,
                    -0.0,
                    2.64177
                ]
            ],
            [
                [
                    0.67813,
                    0.0,
                    -0.04803
                ],
                [
                    3e-05,
                    2.62355,
                    0.00016
                ],
                [
                    0.02071,
                    -0.0,
                    2.64174
                ]
            ],
            [
                [
                    -1.65355,
                    0.0,
                    0.35682
                ],
                [
                    0.0003,
                    -1.94255,
                    4e-05
                ],
                [
                    0.47032,
                    -0.0,
                    -2.46554
                ]
            ],
            [
                [
                    -1.65377,
                    0.0,
                    0.35675
                ],
                [
                    -0.0003,
                    -1.94255,
                    -4e-05
                ],
                [
                    0.47046,
                    -0.0,
                    -2.46565
                ]
            ],
            [
                [
                    -1.65355,
                    0.0,
                    -0.35682
                ],
                [
                    0.0003,
                    -1.94255,
                    -4e-05
                ],
                [
                    -0.47046,
                    -0.0,
                    -2.46565
                ]
            ],
            [
                [
                    -1.65377,
                    0.0,
                    -0.35675
                ],
                [
                    -0.0003,
                    -1.94255,
                    4e-05
                ],
                [
                    -0.47032,
                    -0.0,
                    -2.46554
                ]
            ],
            [
                [
                    -1.58987,
                    0.2371,
                    -0.12914
                ],
                [
                    0.36974,
                    -2.44674,
                    0.12141
                ],
                [
                    -0.23037,
                    0.16487,
                    -2.18941
                ]
            ],
            [
                [
                    -1.58999,
                    -0.2371,
                    -0.12927
                ],
                [
                    -0.36974,
                    -2.44674,
                    -0.12141
                ],
                [
                    -0.23035,
                    -0.16483,
                    -2.1893
                ]
            ],
            [
                [
                    -1.58987,
                    -0.2371,
                    0.12914
                ],
                [
                    -0.3699,
                    -2.44689,
                    0.12134
                ],
                [
                    0.23035,
                    0.16483,
                    -2.1893
                ]
            ],
            [
                [
                    -1.58999,
                    0.2371,
                    0.12927
                ],
                [
                    0.3699,
                    -2.44689,
                    -0.12134
                ],
                [
                    0.23037,
                    -0.16487,
                    -2.18941
                ]
            ],
            [
                [
                    -1.58999,
                    0.2371,
                    -0.12927
                ],
                [
                    0.3699,
                    -2.44689,
                    0.12134
                ],
                [
                    -0.23035,
                    0.16483,
                    -2.1893
                ]
            ],
            [
                [
                    -1.58987,
                    -0.2371,
                    -0.12914
                ],
                [
                    -0.3699,
                    -2.44689,
                    -0.12134
                ],
                [
                    -0.23037,
                    -0.16487,
                    -2.18941
                ]
            ],
            [
                [
                    -1.58999,
                    -0.2371,
                    0.12927
                ],
                [
                    -0.36974,
                    -2.44674,
                    0.12141
                ],
                [
                    0.23037,
                    0.16487,
                    -2.18941
                ]
            ],
            [
                [
                    -1.58987,
                    0.2371,
                    0.12914
                ],
                [
                    0.36974,
                    -2.44674,
                    -0.12141
                ],
                [
                    0.23035,
                    -0.16483,
                    -2.1893
                ]
            ]
        ]
    },
    "band_gap": 4.8031,
    "is_direct": false,
    "formula": "LaBO3"
}