{
    "mp_id": "mp-8058",
    "nelements": 3,
    "nsites": 12,
    "elements": [
        "As",
        "O",
        "Y"
    ],
    "structure": {
        "@module": "pymatgen.core.structure",
        "@class": "Structure",
        "charge": null,
        "lattice": {
            "matrix": [
                [
                    -3.53199809,
                    3.53199809,
                    3.14914435
                ],
                [
                    3.53199809,
                    -3.53199809,
                    3.14914435
                ],
                [
                    3.53199809,
                    3.53199809,
                    -3.14914435
                ]
            ],
            "a": 5.904839638183599,
            "b": 5.904839638183599,
            "c": 5.904839638183599,
            "alpha": 106.52452632655847,
            "beta": 106.52452632655847,
            "gamma": 115.54046817861665,
            "volume": 157.14243542685807
        },
        "sites": [
            {
                "species": [
                    {
                        "element": "Y",
                        "occu": 1
                    }
                ],
                "abc": [
                    0.25,
                    0.75,
                    0.5
                ],
                "xyz": [
                    3.53199809,
                    0.0,
                    1.574572175
                ],
                "label": "Y",
                "properties": {}
            },
            {
                "species": [
                    {
                        "element": "Y",
                        "occu": 1
                    }
                ],
                "abc": [
                    0.5,
                    0.5,
                    0.0
                ],
                "xyz": [
                    0.0,
                    0.0,
                    3.14914435
                ],
                "label": "Y",
                "properties": {}
            },
            {
                "species": [
                    {
                        "element": "As",
                        "occu": 1
                    }
                ],
                "abc": [
                    0.75,
                    0.25,
                    0.5
                ],
                "xyz": [
                    0.0,
                    3.53199809,
                    1.574572175
                ],
                "label": "As",
                "properties": {}
            },
            {
                "species": [
                    {
                        "element": "As",
                        "occu": 1
                    }
                ],
                "abc": [
                    0.0,
                    0.0,
                    0.0
                ],
                "xyz": [
                    0.0,
                    0.0,
                    0.0
                ],
                "label": "As",
                "properties": {}
            },
            {
                "species": [
                    {
                        "element": "O",
                        "occu": 1
                    }
                ],
                "abc": [
                    0.00441956,
                    0.82194528,
                    0.18247428
                ],
                "xyz": [
                    3.53199809,
                    -2.24300047313175,
                    2.0277043190423356
                ],
                "label": "O",
                "properties": {}
            },
            {
                "species": [
                    {
                        "element": "O",
                        "occu": 1
                    }
                ],
                "abc": [
                    0.57194528,
                    0.889471,
                    0.31752572
                ],
                "xyz": [
                    2.243000473131749,
                    2.220446049250313e-16,
                    3.6022764940423357
                ],
                "label": "O",
                "properties": {}
            },
            {
                "species": [
                    {
                        "element": "O",
                        "occu": 1
                    }
                ],
                "abc": [
                    0.57194528,
                    0.25441956,
                    0.68247428
                ],
                "xyz": [
                    1.28899761686825,
                    3.53199809,
                    0.4531321440423359
                ],
                "label": "O",
                "properties": {}
            },
            {
                "species": [
                    {
                        "element": "O",
                        "occu": 1
                    }
                ],
                "abc": [
                    0.639471,
                    0.82194528,
                    0.81752572
                ],
                "xyz": [
                    3.5319980900000005,
                    2.2430004731317497,
                    2.0277043190423356
                ],
                "label": "O",
                "properties": {}
            },
            {
                "species": [
                    {
                        "element": "O",
                        "occu": 1
                    }
                ],
                "abc": [
                    0.17805472,
                    0.360529,
                    0.18247428
                ],
                "xyz": [
                    1.2889976168682504,
                    0.0,
                    1.121440030957664
                ],
                "label": "O",
                "properties": {}
            },
            {
                "species": [
                    {
                        "element": "O",
                        "occu": 1
                    }
                ],
                "abc": [
                    0.74558044,
                    0.42805472,
                    0.31752572
                ],
                "xyz": [
                    0.0,
                    2.2430004731317497,
                    2.696012205957664
                ],
                "label": "O",
                "properties": {}
            },
            {
                "species": [
                    {
                        "element": "O",
                        "occu": 1
                    }
                ],
                "abc": [
                    0.110529,
                    0.42805472,
                    0.68247428
                ],
                "xyz": [
                    3.53199809,
                    1.2889976168682502,
                    -0.4531321440423359
                ],
                "label": "O",
                "properties": {}
            },
            {
                "species": [
                    {
                        "element": "O",
                        "occu": 1
                    }
                ],
                "abc": [
                    0.17805472,
                    0.99558044,
                    0.81752572
                ],
                "xyz": [
                    5.774998563131749,
                    4.440892098500626e-16,
                    1.1214400309576638
                ],
                "label": "O",
                "properties": {}
            }
        ]
    },
    "spacegroup": {
        "source": "spglib",
        "symbol": "I4_1/amd",
        "number": 141,
        "point_group": "4/mmm",
        "crystal_system": "tetragonal",
        "hall": "I 4bw 2bw -1bw"
    },
    "dielectric": {
        "epsilon_ionic": [
            [
                5.92712867,
                -0.0,
                -0.0
            ],
            [
                -0.0,
                5.92713859,
                -0.0
            ],
            [
                -0.0,
                -0.0,
                6.77654776
            ]
        ],
        "epsilon_ionic_avg": 6.210271673333334,
        "epsilon_ionic_eig": [
            5.92712867,
            5.92713859,
            6.77654776
        ],
        "epsilon_electronic": [
            [
                3.46309021,
                0.0,
                0.0
            ],
            [
                0.0,
                3.46309021,
                0.0
            ],
            [
                0.0,
                0.0,
                3.98950763
            ]
        ],
        "epsilon_electronic_avg": 3.6385626833333333,
        "epsilon_electronic_eig": [
            3.46309021,
            3.46309021,
            3.98950763
        ]
    },
    "phonon": {
        "lowest_freq": -0.014473027468472385,
        "frequency": [
            -0.014473027468472385,
            -0.013631622065588957,
            -0.013631622065588957,
            2.2916399510724847,
            3.428619680171797,
            3.428619680171797,
            4.828993809360976,
            5.137412101994256,
            5.137412101994256,
            5.4357806209709105,
            6.038743983890979,
            6.038743983890979,
            6.196016499791631,
            7.455446638334399,
            7.516613581334975,
            7.516613581334975,
            7.874756583722954,
            8.656196445353842,
            8.656196445353842,
            9.371806071442109,
            9.446662507924247,
            9.446662507924247,
            11.426600299062004,
            12.147584771889873,
            12.147584771889873,
            12.862783435220125,
            13.952215498062438,
            14.266825341231455,
            23.106633463123146,
            23.106633463123146,
            24.074851404235954,
            24.074851404235954,
            24.865837745642843,
            25.477694575855836,
            25.538409364136218,
            25.87389844691455
        ]
    },
    "born_effective_charge": {
        "avg_abs_trace": 2.5549894444444443,
        "tensors": [
            [
                [
                    3.9747,
                    -0.0,
                    -7e-05
                ],
                [
                    -0.0,
                    3.97471,
                    -2e-05
                ],
                [
                    -0.0,
                    0.0,
                    4.18965
                ]
            ],
            [
                [
                    3.9747,
                    -0.0,
                    7e-05
                ],
                [
                    -0.0,
                    3.97471,
                    2e-05
                ],
                [
                    -0.0,
                    0.0,
                    4.18965
                ]
            ],
            [
                [
                    3.30849,
                    -0.0,
                    4e-05
                ],
                [
                    -0.0,
                    3.30849,
                    1e-05
                ],
                [
                    -0.0,
                    0.0,
                    4.23886
                ]
            ],
            [
                [
                    3.30849,
                    -0.0,
                    -4e-05
                ],
                [
                    -0.0,
                    3.30849,
                    -1e-05
                ],
                [
                    -0.0,
                    0.0,
                    4.23886
                ]
            ],
            [
                [
                    -1.04374,
                    7e-05,
                    -7e-05
                ],
                [
                    -0.0,
                    -2.59784,
                    0.52766
                ],
                [
                    -0.0,
                    0.43767,
                    -2.10712
                ]
            ],
            [
                [
                    -2.59784,
                    -0.0,
                    -0.52755
                ],
                [
                    -1e-05,
                    -1.04374,
                    -2e-05
                ],
                [
                    -0.43767,
                    -0.0,
                    -2.10712
                ]
            ],
            [
                [
                    -2.59787,
                    0.0,
                    0.52761
                ],
                [
                    1e-05,
                    -1.04374,
                    -2e-05
                ],
                [
                    0.43767,
                    0.0,
                    -2.10712
                ]
            ],
            [
                [
                    -1.04374,
                    -7e-05,
                    -7e-05
                ],
                [
                    -0.0,
                    -2.59788,
                    -0.52752
                ],
                [
                    -0.0,
                    -0.43767,
                    -2.10712
                ]
            ],
            [
                [
                    -2.59787,
                    0.0,
                    -0.52761
                ],
                [
                    1e-05,
                    -1.04374,
                    2e-05
                ],
                [
                    -0.43769,
                    0.0,
                    -2.10714
                ]
            ],
            [
                [
                    -1.04374,
                    -7e-05,
                    7e-05
                ],
                [
                    -0.0,
                    -2.59788,
                    0.52752
                ],
                [
                    -0.0,
                    0.43769,
                    -2.10714
                ]
            ],
            [
                [
                    -1.04374,
                    7e-05,
                    7e-05
                ],
                [
                    0.0,
                    -2.59784,
                    -0.52766
                ],
                [
                    -0.0,
                    -0.43769,
                    -2.10714
                ]
            ],
            [
                [
                    -2.59784,
                    -0.0,
                    0.52755
                ],
                [
                    -1e-05,
                    -1.04374,
                    2e-05
                ],
                [
                    0.43769,
                    -0.0,
                    -2.10714
                ]
            ]
        ]
    },
    "band_gap": 3.7915,
    "is_direct": false,
    "formula": "YAsO4"
}