{
    "mp_id": "mp-849527",
    "nelements": 3,
    "nsites": 28,
    "elements": [
        "In",
        "O",
        "Rb"
    ],
    "structure": {
        "@module": "pymatgen.core.structure",
        "@class": "Structure",
        "charge": null,
        "lattice": {
            "matrix": [
                [
                    7.70791725,
                    0.0,
                    0.00099243
                ],
                [
                    0.0,
                    7.10486141,
                    0.0
                ],
                [
                    -0.78963645,
                    0.0,
                    11.35476131
                ]
            ],
            "a": 7.707917313889977,
            "b": 7.10486141,
            "c": 11.382184769640736,
            "alpha": 90.0,
            "beta": 93.97069977576683,
            "gamma": 90.0,
            "volume": 621.8341260316366
        },
        "sites": [
            {
                "species": [
                    {
                        "element": "Rb",
                        "occu": 1
                    }
                ],
                "abc": [
                    0.64148324,
                    0.67330048,
                    0.07526314
                ],
                "xyz": [
                    4.885069212496438,
                    4.783706597686477,
                    0.8552316173529867
                ],
                "label": "Rb",
                "properties": {}
            },
            {
                "species": [
                    {
                        "element": "Rb",
                        "occu": 1
                    }
                ],
                "abc": [
                    0.05845316,
                    0.37316627,
                    0.15621182
                ],
                "xyz": [
                    0.327201573288171,
                    2.6512946312366408,
                    1.7738059405702633
                ],
                "label": "Rb",
                "properties": {}
            },
            {
                "species": [
                    {
                        "element": "Rb",
                        "occu": 1
                    }
                ],
                "abc": [
                    0.62967798,
                    0.19549076,
                    0.19130208
                ],
                "xyz": [
                    4.702446668658339,
                    1.3889347567355717,
                    2.172814367824216
                ],
                "label": "Rb",
                "properties": {}
            },
            {
                "species": [
                    {
                        "element": "Rb",
                        "occu": 1
                    }
                ],
                "abc": [
                    0.37032202,
                    0.69549076,
                    0.30869792
                ],
                "xyz": [
                    2.610652356341661,
                    4.941365461735572,
                    3.505558717175784
                ],
                "label": "Rb",
                "properties": {}
            },
            {
                "species": [
                    {
                        "element": "Rb",
                        "occu": 1
                    }
                ],
                "abc": [
                    0.94154684,
                    0.87316627,
                    0.34378818
                ],
                "xyz": [
                    6.985897451711829,
                    6.203725336236641,
                    3.904567144429737
                ],
                "label": "Rb",
                "properties": {}
            },
            {
                "species": [
                    {
                        "element": "Rb",
                        "occu": 1
                    }
                ],
                "abc": [
                    0.35851676,
                    0.17330048,
                    0.42473686
                ],
                "xyz": [
                    2.428029812503563,
                    1.2312758926864769,
                    4.823141467647013
                ],
                "label": "Rb",
                "properties": {}
            },
            {
                "species": [
                    {
                        "element": "Rb",
                        "occu": 1
                    }
                ],
                "abc": [
                    0.64148324,
                    0.82669952,
                    0.57526314
                ],
                "xyz": [
                    4.490250987496437,
                    5.873585517313523,
                    6.532612272352988
                ],
                "label": "Rb",
                "properties": {}
            },
            {
                "species": [
                    {
                        "element": "Rb",
                        "occu": 1
                    }
                ],
                "abc": [
                    0.05845316,
                    0.12683373,
                    0.65621182
                ],
                "xyz": [
                    -0.06761665171182907,
                    0.9011360737633594,
                    7.451186595570264
                ],
                "label": "Rb",
                "properties": {}
            },
            {
                "species": [
                    {
                        "element": "Rb",
                        "occu": 1
                    }
                ],
                "abc": [
                    0.62967798,
                    0.30450924,
                    0.69130208
                ],
                "xyz": [
                    4.307628443658339,
                    2.1634959482644285,
                    7.850195022824217
                ],
                "label": "Rb",
                "properties": {}
            },
            {
                "species": [
                    {
                        "element": "Rb",
                        "occu": 1
                    }
                ],
                "abc": [
                    0.37032202,
                    0.80450924,
                    0.80869792
                ],
                "xyz": [
                    2.2158341313416607,
                    5.715926653264428,
                    9.182939372175785
                ],
                "label": "Rb",
                "properties": {}
            },
            {
                "species": [
                    {
                        "element": "Rb",
                        "occu": 1
                    }
                ],
                "abc": [
                    0.94154684,
                    0.62683373,
                    0.84378818
                ],
                "xyz": [
                    6.591079226711829,
                    4.453566778763359,
                    9.581947799429738
                ],
                "label": "Rb",
                "properties": {}
            },
            {
                "species": [
                    {
                        "element": "Rb",
                        "occu": 1
                    }
                ],
                "abc": [
                    0.35851676,
                    0.32669952,
                    0.92473686
                ],
                "xyz": [
                    2.0332115875035632,
                    2.3211548123135235,
                    10.500522122647014
                ],
                "label": "Rb",
                "properties": {}
            },
            {
                "species": [
                    {
                        "element": "In",
                        "occu": 1
                    }
                ],
                "abc": [
                    0.16110973,
                    0.91069657,
                    0.06845039
                ],
                "xyz": [
                    1.1877695440491272,
                    6.470372916412364,
                    0.7773977301557549
                ],
                "label": "In",
                "properties": {}
            },
            {
                "species": [
                    {
                        "element": "In",
                        "occu": 1
                    }
                ],
                "abc": [
                    0.83889027,
                    0.41069657,
                    0.43154961
                ],
                "xyz": [
                    6.125329480950874,
                    2.9179422114123637,
                    4.9009753548442445
                ],
                "label": "In",
                "properties": {}
            },
            {
                "species": [
                    {
                        "element": "In",
                        "occu": 1
                    }
                ],
                "abc": [
                    0.16110973,
                    0.58930343,
                    0.56845039
                ],
                "xyz": [
                    0.7929513190491272,
                    4.186919198587636,
                    6.4547783851557545
                ],
                "label": "In",
                "properties": {}
            },
            {
                "species": [
                    {
                        "element": "In",
                        "occu": 1
                    }
                ],
                "abc": [
                    0.83889027,
                    0.08930343,
                    0.93154961
                ],
                "xyz": [
                    5.730511255950874,
                    0.6344884935876363,
                    10.578356009844246
                ],
                "label": "In",
                "properties": {}
            },
            {
                "species": [
                    {
                        "element": "O",
                        "occu": 1
                    }
                ],
                "abc": [
                    0.25513436,
                    0.64107777,
                    0.0408712
                ],
                "xyz": [
                    1.93428114523647,
                    4.554768708881856,
                    0.46433592344616686
                ],
                "label": "O",
                "properties": {}
            },
            {
                "species": [
                    {
                        "element": "O",
                        "occu": 1
                    }
                ],
                "abc": [
                    0.88982319,
                    0.95482658,
                    0.1007241
                ],
                "xyz": [
                    6.779148094897582,
                    6.783910521484278,
                    1.1445812008930227
                ],
                "label": "O",
                "properties": {}
            },
            {
                "species": [
                    {
                        "element": "O",
                        "occu": 1
                    }
                ],
                "abc": [
                    0.30499632,
                    0.0613311,
                    0.1968574
                ],
                "xyz": [
                    2.19544061762229,
                    0.435748965622851,
                    2.2355714766050516
                ],
                "label": "O",
                "properties": {}
            },
            {
                "species": [
                    {
                        "element": "O",
                        "occu": 1
                    }
                ],
                "abc": [
                    0.69500368,
                    0.5613311,
                    0.3031426
                ],
                "xyz": [
                    5.117658407377711,
                    3.9881796706228507,
                    3.4428016083949484
                ],
                "label": "O",
                "properties": {}
            },
            {
                "species": [
                    {
                        "element": "O",
                        "occu": 1
                    }
                ],
                "abc": [
                    0.11017681,
                    0.45482658,
                    0.3992759
                ],
                "xyz": [
                    0.5339509301024175,
                    3.2314798164842777,
                    4.533791884106978
                ],
                "label": "O",
                "properties": {}
            },
            {
                "species": [
                    {
                        "element": "O",
                        "occu": 1
                    }
                ],
                "abc": [
                    0.74486564,
                    0.14107777,
                    0.4591288
                ],
                "xyz": [
                    5.37881787976353,
                    1.0023380038818557,
                    5.214037161553834
                ],
                "label": "O",
                "properties": {}
            },
            {
                "species": [
                    {
                        "element": "O",
                        "occu": 1
                    }
                ],
                "abc": [
                    0.25513436,
                    0.85892223,
                    0.5408712
                ],
                "xyz": [
                    1.53946292023647,
                    6.102523406118144,
                    6.141716578446167
                ],
                "label": "O",
                "properties": {}
            },
            {
                "species": [
                    {
                        "element": "O",
                        "occu": 1
                    }
                ],
                "abc": [
                    0.88982319,
                    0.54517342,
                    0.6007241
                ],
                "xyz": [
                    6.3843298698975826,
                    3.873381593515722,
                    6.821961855893023
                ],
                "label": "O",
                "properties": {}
            },
            {
                "species": [
                    {
                        "element": "O",
                        "occu": 1
                    }
                ],
                "abc": [
                    0.30499632,
                    0.4386689,
                    0.6968574
                ],
                "xyz": [
                    1.80062239262229,
                    3.1166817393771487,
                    7.912952131605051
                ],
                "label": "O",
                "properties": {}
            },
            {
                "species": [
                    {
                        "element": "O",
                        "occu": 1
                    }
                ],
                "abc": [
                    0.69500368,
                    0.9386689,
                    0.8031426
                ],
                "xyz": [
                    4.722840182377711,
                    6.6691124443771495,
                    9.12018226339495
                ],
                "label": "O",
                "properties": {}
            },
            {
                "species": [
                    {
                        "element": "O",
                        "occu": 1
                    }
                ],
                "abc": [
                    0.11017681,
                    0.04517342,
                    0.8992759
                ],
                "xyz": [
                    0.1391327051024175,
                    0.3209508885157222,
                    10.211172539106977
                ],
                "label": "O",
                "properties": {}
            },
            {
                "species": [
                    {
                        "element": "O",
                        "occu": 1
                    }
                ],
                "abc": [
                    0.74486564,
                    0.35892223,
                    0.9591288
                ],
                "xyz": [
                    4.98399965476353,
                    2.5500927011181442,
                    10.891417816553835
                ],
                "label": "O",
                "properties": {}
            }
        ]
    },
    "spacegroup": {
        "source": "spglib",
        "symbol": "P2_1/c",
        "number": 14,
        "point_group": "2/m",
        "crystal_system": "monoclinic",
        "hall": "-P 2ybc"
    },
    "dielectric": {
        "epsilon_ionic": [
            [
                5.46252959,
                -4e-08,
                0.83697354
            ],
            [
                -4e-08,
                6.71720842,
                -3e-08
            ],
            [
                0.83697354,
                -3e-08,
                7.5573665
            ]
        ],
        "epsilon_ionic_avg": 6.5790348366666676,
        "epsilon_ionic_eig": [
            5.169198207582623,
            7.8506978824173785,
            6.717208420000002
        ],
        "epsilon_electronic": [
            [
                3.22688163,
                0.0,
                0.09350253
            ],
            [
                0.0,
                3.28667274,
                0.0
            ],
            [
                0.0935025,
                0.0,
                3.27637394
            ]
        ],
        "epsilon_electronic_avg": 3.263309436666667,
        "epsilon_electronic_eig": [
            3.154906057872074,
            3.348349512127926,
            3.28667274
        ]
    },
    "phonon": {
        "lowest_freq": -0.09732071596370583,
        "frequency": [
            -0.09732071596370583,
            -0.03926313635405856,
            -0.021931088990681972,
            1.0856899952361445,
            1.2026344623992,
            1.325490358150117,
            1.4151553342473009,
            1.44022962480046,
            1.4438515192837513,
            1.597476234123548,
            1.6171357436323477,
            1.6355357700755275,
            1.6691011417655812,
            1.6866087757733141,
            1.828268757613235,
            1.8763626683542582,
            1.9322897051051242,
            2.1468151165050053,
            2.1468558434949543,
            2.1786526814679643,
            2.232596511057803,
            2.2507732841158066,
            2.338229242649833,
            2.3726628556225386,
            2.4658273539017204,
            2.4672908262651463,
            2.6920461431570493,
            2.6956910943665005,
            2.699118638294757,
            2.833987419738028,
            2.9036041304115905,
            2.918385817588268,
            2.9903637227735254,
            3.0182920176083923,
            3.0208213678091766,
            3.0330118485124804,
            3.089284866256041,
            3.2768492918182908,
            3.3017513246067662,
            3.337153853751612,
            3.458378970239078,
            3.493432678342537,
            3.527782857711503,
            3.585832658144931,
            3.6070529444542965,
            3.696932291680384,
            4.1899488479012685,
            4.2867391524027,
            4.388972836595007,
            4.389282531944225,
            4.596344183228049,
            4.955923469977622,
            5.251818233113917,
            5.254791153610597,
            5.2654043341137715,
            5.444966739317219,
            5.695958710624397,
            5.8025223174097915,
            6.022695133151633,
            6.031068282979489,
            6.133398652047187,
            6.317529760796842,
            6.698277165200018,
            6.889962572762511,
            7.022837228226343,
            7.287430181775349,
            7.7040798368833485,
            7.888441346304507,
            12.719152629005357,
            12.740385261404795,
            13.122686987972473,
            13.1457783905283,
            13.898636686810432,
            14.280337850773455,
            14.518626323465945,
            14.71351147584703,
            15.820711536117821,
            15.866237121534972,
            16.111037781540254,
            16.296390887196793,
            16.946636086731672,
            16.990747877746013,
            17.24548920497616,
            17.247634190541465
        ]
    },
    "born_effective_charge": {
        "avg_abs_trace": 1.671723333333333,
        "tensors": [
            [
                [
                    1.21649,
                    0.05855,
                    0.0239
                ],
                [
                    -0.00829,
                    1.18921,
                    -0.0009
                ],
                [
                    -0.03229,
                    -0.017,
                    1.21135
                ]
            ],
            [
                [
                    0.98402,
                    0.00213,
                    -0.00697
                ],
                [
                    0.05797,
                    1.23763,
                    -0.01219
                ],
                [
                    -0.01016,
                    0.04028,
                    1.22317
                ]
            ],
            [
                [
                    1.27983,
                    0.05634,
                    -0.10059
                ],
                [
                    0.0822,
                    1.06964,
                    0.0591
                ],
                [
                    -0.01479,
                    0.09963,
                    1.14632
                ]
            ],
            [
                [
                    1.27962,
                    -0.05661,
                    -0.10049
                ],
                [
                    -0.0822,
                    1.06964,
                    -0.0591
                ],
                [
                    -0.0149,
                    -0.0998,
                    1.14638
                ]
            ],
            [
                [
                    0.9842,
                    -0.00216,
                    -0.00699
                ],
                [
                    -0.05797,
                    1.23763,
                    0.01219
                ],
                [
                    -0.01011,
                    -0.04038,
                    1.22312
                ]
            ],
            [
                [
                    1.21659,
                    -0.05858,
                    0.02388
                ],
                [
                    0.00829,
                    1.18921,
                    0.0009
                ],
                [
                    -0.03224,
                    0.01714,
                    1.21133
                ]
            ],
            [
                [
                    1.21649,
                    -0.05855,
                    0.0239
                ],
                [
                    0.00858,
                    1.18916,
                    0.00094
                ],
                [
                    -0.03229,
                    0.017,
                    1.21135
                ]
            ],
            [
                [
                    0.98402,
                    -0.00213,
                    -0.00697
                ],
                [
                    -0.0578,
                    1.23739,
                    0.01202
                ],
                [
                    -0.01016,
                    -0.04028,
                    1.22317
                ]
            ],
            [
                [
                    1.27983,
                    -0.05634,
                    -0.10059
                ],
                [
                    -0.08231,
                    1.06962,
                    -0.05905
                ],
                [
                    -0.01479,
                    -0.09963,
                    1.14632
                ]
            ],
            [
                [
                    1.27962,
                    0.05661,
                    -0.10049
                ],
                [
                    0.08231,
                    1.06962,
                    0.05905
                ],
                [
                    -0.0149,
                    0.0998,
                    1.14638
                ]
            ],
            [
                [
                    0.9842,
                    0.00216,
                    -0.00699
                ],
                [
                    0.0578,
                    1.23739,
                    -0.01202
                ],
                [
                    -0.01011,
                    0.04038,
                    1.22312
                ]
            ],
            [
                [
                    1.21659,
                    0.05858,
                    0.02388
                ],
                [
                    -0.00858,
                    1.18916,
                    -0.00094
                ],
                [
                    -0.03224,
                    -0.01714,
                    1.21133
                ]
            ],
            [
                [
                    2.27863,
                    -0.39244,
                    0.54435
                ],
                [
                    -0.38238,
                    2.44291,
                    0.11322
                ],
                [
                    0.51957,
                    0.14255,
                    2.27406
                ]
            ],
            [
                [
                    2.27858,
                    0.39264,
                    0.54429
                ],
                [
                    0.38238,
                    2.44291,
                    -0.11322
                ],
                [
                    0.51948,
                    -0.14257,
                    2.274
                ]
            ],
            [
                [
                    2.27863,
                    0.39244,
                    0.54435
                ],
                [
                    0.38213,
                    2.44295,
                    -0.11337
                ],
                [
                    0.51957,
                    -0.14255,
                    2.27406
                ]
            ],
            [
                [
                    2.27858,
                    -0.39264,
                    0.54429
                ],
                [
                    -0.38213,
                    2.44295,
                    0.11337
                ],
                [
                    0.51948,
                    0.14257,
                    2.274
                ]
            ],
            [
                [
                    -1.73174,
                    0.2892,
                    0.03192
                ],
                [
                    0.29433,
                    -2.36205,
                    -0.12033
                ],
                [
                    -0.03554,
                    -0.0798,
                    -1.73074
                ]
            ],
            [
                [
                    -2.09919,
                    0.18563,
                    -0.05721
                ],
                [
                    0.08141,
                    -1.66422,
                    0.26883
                ],
                [
                    -0.02427,
                    0.2215,
                    -2.04094
                ]
            ],
            [
                [
                    -1.92806,
                    -0.19799,
                    -0.43544
                ],
                [
                    -0.16955,
                    -1.91278,
                    -0.19813
                ],
                [
                    -0.40242,
                    -0.24688,
                    -2.08319
                ]
            ],
            [
                [
                    -1.92798,
                    0.19787,
                    -0.43531
                ],
                [
                    0.16955,
                    -1.91278,
                    0.19813
                ],
                [
                    -0.40245,
                    0.24691,
                    -2.08312
                ]
            ],
            [
                [
                    -2.09923,
                    -0.18559,
                    -0.05725
                ],
                [
                    -0.08141,
                    -1.66422,
                    -0.26883
                ],
                [
                    -0.02434,
                    -0.22144,
                    -2.04099
                ]
            ],
            [
                [
                    -1.73175,
                    -0.28944,
                    0.03191
                ],
                [
                    -0.29433,
                    -2.36205,
                    0.12033
                ],
                [
                    -0.03555,
                    0.07967,
                    -1.73075
                ]
            ],
            [
                [
                    -1.73174,
                    -0.2892,
                    0.03192
                ],
                [
                    -0.29422,
                    -2.36227,
                    0.12048
                ],
                [
                    -0.03554,
                    0.0798,
                    -1.73074
                ]
            ],
            [
                [
                    -2.09919,
                    -0.18563,
                    -0.05721
                ],
                [
                    -0.08146,
                    -1.66423,
                    -0.26887
                ],
                [
                    -0.02427,
                    -0.2215,
                    -2.04094
                ]
            ],
            [
                [
                    -1.92806,
                    0.19799,
                    -0.43544
                ],
                [
                    0.16939,
                    -1.91295,
                    0.19822
                ],
                [
                    -0.40242,
                    0.24688,
                    -2.08319
                ]
            ],
            [
                [
                    -1.92798,
                    -0.19787,
                    -0.43531
                ],
                [
                    -0.16939,
                    -1.91295,
                    -0.19822
                ],
                [
                    -0.40245,
                    -0.24691,
                    -2.08312
                ]
            ],
            [
                [
                    -2.09923,
                    0.18559,
                    -0.05725
                ],
                [
                    0.08146,
                    -1.66423,
                    0.26887
                ],
                [
                    -0.02434,
                    0.22144,
                    -2.04099
                ]
            ],
            [
                [
                    -1.73175,
                    0.28944,
                    0.03191
                ],
                [
                    0.29422,
                    -2.36227,
                    -0.12048
                ],
                [
                    -0.03555,
                    -0.07967,
                    -1.73075
                ]
            ]
        ]
    },
    "band_gap": 1.9469,
    "is_direct": false,
    "formula": "Rb3InO3"
}