{
    "mp_id": "mp-8624",
    "nelements": 3,
    "nsites": 14,
    "elements": [
        "K",
        "O",
        "Sn"
    ],
    "structure": {
        "@module": "pymatgen.core.structure",
        "@class": "Structure",
        "charge": null,
        "lattice": {
            "matrix": [
                [
                    -4.18515472,
                    4.18515472,
                    4.18515472
                ],
                [
                    4.18515472,
                    -4.18515472,
                    4.18515472
                ],
                [
                    4.18515472,
                    4.18515472,
                    -4.18515472
                ]
            ],
            "a": 7.248900612576698,
            "b": 7.248900612576698,
            "c": 7.248900612576698,
            "alpha": 109.47122063449069,
            "beta": 109.47122063449069,
            "gamma": 109.47122063449069,
            "volume": 293.22064531289914
        },
        "sites": [
            {
                "species": [
                    {
                        "element": "K",
                        "occu": 1
                    }
                ],
                "abc": [
                    0.5,
                    0.0,
                    0.48170354
                ],
                "xyz": [
                    -0.07657351592829142,
                    4.108581204071708,
                    0.07657351592829142
                ],
                "label": "K",
                "properties": {}
            },
            {
                "species": [
                    {
                        "element": "K",
                        "occu": 1
                    }
                ],
                "abc": [
                    0.01829646,
                    0.01829646,
                    0.01829646
                ],
                "xyz": [
                    0.0765735159282912,
                    0.0765735159282912,
                    0.0765735159282912
                ],
                "label": "K",
                "properties": {}
            },
            {
                "species": [
                    {
                        "element": "K",
                        "occu": 1
                    }
                ],
                "abc": [
                    0.48170354,
                    0.5,
                    0.0
                ],
                "xyz": [
                    0.07657351592829142,
                    -0.07657351592829142,
                    4.108581204071708
                ],
                "label": "K",
                "properties": {}
            },
            {
                "species": [
                    {
                        "element": "K",
                        "occu": 1
                    }
                ],
                "abc": [
                    0.0,
                    0.48170354,
                    0.5
                ],
                "xyz": [
                    4.108581204071708,
                    0.07657351592829142,
                    -0.07657351592829142
                ],
                "label": "K",
                "properties": {}
            },
            {
                "species": [
                    {
                        "element": "Sn",
                        "occu": 1
                    }
                ],
                "abc": [
                    0.0,
                    0.00800199,
                    0.5
                ],
                "xyz": [
                    2.126066926217893,
                    2.059087793782107,
                    -2.059087793782107
                ],
                "label": "Sn",
                "properties": {}
            },
            {
                "species": [
                    {
                        "element": "Sn",
                        "occu": 1
                    }
                ],
                "abc": [
                    0.00800199,
                    0.5,
                    0.0
                ],
                "xyz": [
                    2.059087793782107,
                    -2.059087793782107,
                    2.126066926217893
                ],
                "label": "Sn",
                "properties": {}
            },
            {
                "species": [
                    {
                        "element": "Sn",
                        "occu": 1
                    }
                ],
                "abc": [
                    0.49199801,
                    0.49199801,
                    0.49199801
                ],
                "xyz": [
                    2.059087793782107,
                    2.059087793782107,
                    2.059087793782107
                ],
                "label": "Sn",
                "properties": {}
            },
            {
                "species": [
                    {
                        "element": "Sn",
                        "occu": 1
                    }
                ],
                "abc": [
                    0.5,
                    0.0,
                    0.00800199
                ],
                "xyz": [
                    -2.059087793782107,
                    2.126066926217893,
                    2.059087793782107
                ],
                "label": "Sn",
                "properties": {}
            },
            {
                "species": [
                    {
                        "element": "O",
                        "occu": 1
                    }
                ],
                "abc": [
                    0.97875271,
                    0.22875271,
                    0.75
                ],
                "xyz": [
                    4.440892098500626e-16,
                    6.27773208,
                    1.9147309679385822
                ],
                "label": "O",
                "properties": {}
            },
            {
                "species": [
                    {
                        "element": "O",
                        "occu": 1
                    }
                ],
                "abc": [
                    0.52124729,
                    0.27124729,
                    0.25
                ],
                "xyz": [
                    -2.220446049250313e-16,
                    2.09257736,
                    2.2704237520614177
                ],
                "label": "O",
                "properties": {}
            },
            {
                "species": [
                    {
                        "element": "O",
                        "occu": 1
                    }
                ],
                "abc": [
                    0.22875271,
                    0.75,
                    0.97875271
                ],
                "xyz": [
                    6.27773208,
                    1.9147309679385818,
                    8.881784197001252e-16
                ],
                "label": "O",
                "properties": {}
            },
            {
                "species": [
                    {
                        "element": "O",
                        "occu": 1
                    }
                ],
                "abc": [
                    0.75,
                    0.97875271,
                    0.22875271
                ],
                "xyz": [
                    1.9147309679385818,
                    5.551115123125783e-16,
                    6.277732079999999
                ],
                "label": "O",
                "properties": {}
            },
            {
                "species": [
                    {
                        "element": "O",
                        "occu": 1
                    }
                ],
                "abc": [
                    0.25,
                    0.52124729,
                    0.27124729
                ],
                "xyz": [
                    2.2704237520614177,
                    -2.220446049250313e-16,
                    2.09257736
                ],
                "label": "O",
                "properties": {}
            },
            {
                "species": [
                    {
                        "element": "O",
                        "occu": 1
                    }
                ],
                "abc": [
                    0.27124729,
                    0.25,
                    0.52124729
                ],
                "xyz": [
                    2.09257736,
                    2.2704237520614177,
                    -4.440892098500626e-16
                ],
                "label": "O",
                "properties": {}
            }
        ]
    },
    "spacegroup": {
        "source": "spglib",
        "symbol": "I2_13",
        "number": 199,
        "point_group": "23",
        "crystal_system": "cubic",
        "hall": "I 2b 2c 3"
    },
    "dielectric": {
        "epsilon_ionic": [
            [
                4.39704656,
                -1e-08,
                6e-08
            ],
            [
                -1e-08,
                4.39736494,
                -1e-08
            ],
            [
                6e-08,
                -1e-08,
                4.39702611
            ]
        ],
        "epsilon_ionic_avg": 4.397145870000002,
        "epsilon_ionic_eig": [
            4.397046560175723,
            4.397026109823671,
            4.39736494000061
        ],
        "epsilon_electronic": [
            [
                5.18635882,
                0.0,
                -0.0
            ],
            [
                0.0,
                5.18635882,
                0.0
            ],
            [
                0.0,
                0.0,
                5.18635882
            ]
        ],
        "epsilon_electronic_avg": 5.18635882,
        "epsilon_electronic_eig": [
            5.18635882,
            5.18635882,
            5.18635882
        ]
    },
    "phonon": {
        "lowest_freq": -0.08201251834478346,
        "frequency": [
            -0.08201251834478346,
            -0.08201251834478346,
            -0.08201251834478346,
            2.297011708121286,
            2.297011708121286,
            2.297011708121286,
            2.7748964404836007,
            2.7748964404836007,
            2.7748964404836007,
            3.2649733200981768,
            3.2649733200981768,
            3.2649733200981768,
            3.294476640776032,
            3.4497373138617764,
            3.4497373138617764,
            3.9089042989082383,
            3.9089042989082383,
            3.9089042989082383,
            4.247530002102822,
            4.247530002102822,
            4.247530002102822,
            5.54446740059525,
            5.54446740059525,
            5.559205070786659,
            5.559205070786659,
            5.559205070786659,
            5.60650634255127,
            6.125550741835383,
            6.125550741835383,
            6.125550741835383,
            6.801113380259279,
            6.801113380259279,
            7.553265704721713,
            8.252543584371734,
            8.252543584371734,
            8.252543584371734,
            15.417369630509445,
            15.417369630509445,
            15.417369630509445,
            18.934123776282448,
            18.934123776282448,
            18.934123776282448
        ]
    },
    "born_effective_charge": {
        "avg_abs_trace": 1.9913009523809524,
        "tensors": [
            [
                [
                    1.17546,
                    -0.02958,
                    0.04848
                ],
                [
                    -0.0484,
                    1.1754,
                    0.0295
                ],
                [
                    0.02952,
                    0.04846,
                    1.17541
                ]
            ],
            [
                [
                    1.1754,
                    -0.02956,
                    -0.04838
                ],
                [
                    -0.04845,
                    1.17544,
                    -0.02963
                ],
                [
                    -0.02952,
                    -0.04846,
                    1.17541
                ]
            ],
            [
                [
                    1.1754,
                    0.02956,
                    0.04838
                ],
                [
                    0.0484,
                    1.1754,
                    -0.0295
                ],
                [
                    0.02963,
                    -0.04838,
                    1.1754
                ]
            ],
            [
                [
                    1.17546,
                    0.02958,
                    -0.04848
                ],
                [
                    0.04845,
                    1.17544,
                    0.02963
                ],
                [
                    -0.02963,
                    0.04838,
                    1.1754
                ]
            ],
            [
                [
                    2.3097,
                    0.00204,
                    -0.24745
                ],
                [
                    0.24709,
                    2.30943,
                    0.00174
                ],
                [
                    -0.0016,
                    0.24702,
                    2.30925
                ]
            ],
            [
                [
                    2.30882,
                    0.00159,
                    0.24728
                ],
                [
                    0.24716,
                    2.30955,
                    -0.00194
                ],
                [
                    0.0016,
                    -0.24702,
                    2.30925
                ]
            ],
            [
                [
                    2.30882,
                    -0.00159,
                    -0.24728
                ],
                [
                    -0.24709,
                    2.30943,
                    -0.00174
                ],
                [
                    -0.002,
                    -0.24749,
                    2.30941
                ]
            ],
            [
                [
                    2.3097,
                    -0.00204,
                    0.24745
                ],
                [
                    -0.24716,
                    2.30955,
                    0.00194
                ],
                [
                    0.002,
                    0.24749,
                    2.30941
                ]
            ],
            [
                [
                    -4.76663,
                    0.22335,
                    -2e-05
                ],
                [
                    -0.82732,
                    -1.00539,
                    -0.00021
                ],
                [
                    -0.0,
                    -0.0,
                    -1.1975
                ]
            ],
            [
                [
                    -4.76663,
                    -0.22335,
                    2e-05
                ],
                [
                    0.82732,
                    -1.00539,
                    0.00021
                ],
                [
                    -0.0,
                    0.0,
                    -1.19737
                ]
            ],
            [
                [
                    -1.0053,
                    -0.00023,
                    -0.82753
                ],
                [
                    0.0,
                    -1.19739,
                    -0.0
                ],
                [
                    0.22335,
                    -0.00038,
                    -4.7667
                ]
            ],
            [
                [
                    -1.19762,
                    0.0,
                    -0.0
                ],
                [
                    -2e-05,
                    -4.76693,
                    0.22334
                ],
                [
                    -0.00027,
                    -0.8274,
                    -1.00532
                ]
            ],
            [
                [
                    -1.19729,
                    0.0,
                    0.0
                ],
                [
                    2e-05,
                    -4.76693,
                    -0.22334
                ],
                [
                    0.00027,
                    0.8274,
                    -1.00532
                ]
            ],
            [
                [
                    -1.0053,
                    0.00023,
                    0.82753
                ],
                [
                    0.0,
                    -1.19759,
                    -0.0
                ],
                [
                    -0.22335,
                    0.00038,
                    -4.7667
                ]
            ]
        ]
    },
    "band_gap": 1.1117,
    "is_direct": false,
    "formula": "K2Sn2O3"
}