{
    "mp_id": "mp-8872",
    "nelements": 4,
    "nsites": 14,
    "elements": [
        "B",
        "Na",
        "O",
        "Rb"
    ],
    "structure": {
        "@module": "pymatgen.core.structure",
        "@class": "Structure",
        "charge": null,
        "lattice": {
            "matrix": [
                [
                    5.63827115,
                    0.0,
                    0.0
                ],
                [
                    0.0,
                    6.03380226,
                    0.0
                ],
                [
                    0.0,
                    0.0,
                    5.50930503
                ]
            ],
            "a": 5.63827115,
            "b": 6.03380226,
            "c": 5.50930503,
            "alpha": 90.0,
            "beta": 90.0,
            "gamma": 90.0,
            "volume": 187.42773174499627
        },
        "sites": [
            {
                "species": [
                    {
                        "element": "Rb",
                        "occu": 1
                    }
                ],
                "abc": [
                    0.5,
                    0.5,
                    0.89294972
                ],
                "xyz": [
                    2.819135575,
                    3.01690113,
                    4.919532383933092
                ],
                "label": "Rb",
                "properties": {}
            },
            {
                "species": [
                    {
                        "element": "Rb",
                        "occu": 1
                    }
                ],
                "abc": [
                    0.0,
                    0.0,
                    0.10705028
                ],
                "xyz": [
                    0.0,
                    0.0,
                    0.5897726460669084
                ],
                "label": "Rb",
                "properties": {}
            },
            {
                "species": [
                    {
                        "element": "Na",
                        "occu": 1
                    }
                ],
                "abc": [
                    0.5,
                    0.76892299,
                    0.36684729
                ],
                "xyz": [
                    2.819135575,
                    4.639529274827957,
                    2.0210736200388686
                ],
                "label": "Na",
                "properties": {}
            },
            {
                "species": [
                    {
                        "element": "Na",
                        "occu": 1
                    }
                ],
                "abc": [
                    0.5,
                    0.23107701,
                    0.36684729
                ],
                "xyz": [
                    2.819135575,
                    1.3942729851720426,
                    2.0210736200388686
                ],
                "label": "Na",
                "properties": {}
            },
            {
                "species": [
                    {
                        "element": "Na",
                        "occu": 1
                    }
                ],
                "abc": [
                    0.0,
                    0.73107701,
                    0.63315271
                ],
                "xyz": [
                    0.0,
                    4.4111741151720425,
                    3.488231409961131
                ],
                "label": "Na",
                "properties": {}
            },
            {
                "species": [
                    {
                        "element": "Na",
                        "occu": 1
                    }
                ],
                "abc": [
                    0.0,
                    0.26892299,
                    0.63315271
                ],
                "xyz": [
                    0.0,
                    1.6226281448279571,
                    3.488231409961131
                ],
                "label": "Na",
                "properties": {}
            },
            {
                "species": [
                    {
                        "element": "B",
                        "occu": 1
                    }
                ],
                "abc": [
                    0.5,
                    0.0,
                    0.78719452
                ],
                "xyz": [
                    2.819135575,
                    0.0,
                    4.3368947286244355
                ],
                "label": "B",
                "properties": {}
            },
            {
                "species": [
                    {
                        "element": "B",
                        "occu": 1
                    }
                ],
                "abc": [
                    0.0,
                    0.5,
                    0.21280548
                ],
                "xyz": [
                    0.0,
                    3.01690113,
                    1.1724103013755645
                ],
                "label": "B",
                "properties": {}
            },
            {
                "species": [
                    {
                        "element": "O",
                        "occu": 1
                    }
                ],
                "abc": [
                    0.28794115,
                    0.0,
                    0.65406906
                ],
                "xyz": [
                    1.6234902789428223,
                    0.0,
                    3.6034659622253717
                ],
                "label": "O",
                "properties": {}
            },
            {
                "species": [
                    {
                        "element": "O",
                        "occu": 1
                    }
                ],
                "abc": [
                    0.21205885,
                    0.5,
                    0.34593094
                ],
                "xyz": [
                    1.1956452960571773,
                    3.01690113,
                    1.9058390677746284
                ],
                "label": "O",
                "properties": {}
            },
            {
                "species": [
                    {
                        "element": "O",
                        "occu": 1
                    }
                ],
                "abc": [
                    0.5,
                    0.0,
                    0.03857184
                ],
                "xyz": [
                    2.819135575,
                    0.0,
                    0.21250403212835522
                ],
                "label": "O",
                "properties": {}
            },
            {
                "species": [
                    {
                        "element": "O",
                        "occu": 1
                    }
                ],
                "abc": [
                    0.0,
                    0.5,
                    0.96142816
                ],
                "xyz": [
                    0.0,
                    3.01690113,
                    5.296800997871645
                ],
                "label": "O",
                "properties": {}
            },
            {
                "species": [
                    {
                        "element": "O",
                        "occu": 1
                    }
                ],
                "abc": [
                    0.78794115,
                    0.5,
                    0.34593094
                ],
                "xyz": [
                    4.442625853942822,
                    3.01690113,
                    1.9058390677746284
                ],
                "label": "O",
                "properties": {}
            },
            {
                "species": [
                    {
                        "element": "O",
                        "occu": 1
                    }
                ],
                "abc": [
                    0.71205885,
                    0.0,
                    0.65406906
                ],
                "xyz": [
                    4.0147808710571775,
                    0.0,
                    3.6034659622253717
                ],
                "label": "O",
                "properties": {}
            }
        ]
    },
    "spacegroup": {
        "source": "spglib",
        "symbol": "Pmmn",
        "number": 59,
        "point_group": "mmm",
        "crystal_system": "orthorhombic",
        "hall": "P 2 2ab -1ab"
    },
    "dielectric": {
        "epsilon_ionic": [
            [
                3.9191636,
                -3e-08,
                4e-08
            ],
            [
                -3e-08,
                3.85017173,
                -3e-08
            ],
            [
                4e-08,
                -3e-08,
                4.69036442
            ]
        ],
        "epsilon_ionic_avg": 4.15323325,
        "epsilon_ionic_eig": [
            3.9191636000000125,
            4.6903644200000025,
            3.8501717299999862
        ],
        "epsilon_electronic": [
            [
                2.68204915,
                0.0,
                0.0
            ],
            [
                0.0,
                2.48445457,
                0.0
            ],
            [
                0.0,
                0.0,
                2.66655735
            ]
        ],
        "epsilon_electronic_avg": 2.6110203566666663,
        "epsilon_electronic_eig": [
            2.68204915,
            2.48445457,
            2.66655735
        ]
    },
    "phonon": {
        "lowest_freq": -0.22687038274719654,
        "frequency": [
            -0.22687038274719654,
            -0.15466934934954588,
            -0.11076746031907202,
            2.30564225141869,
            2.4258530509204146,
            2.5161437460461786,
            3.010324516527973,
            3.310771323624735,
            3.516738954936471,
            4.18884640398547,
            4.478383812545367,
            4.548191260585787,
            5.024814187331998,
            5.61037455986672,
            5.723856474061382,
            5.811792394256229,
            6.076751541785893,
            6.398223787545944,
            6.430895413246168,
            6.495687455111075,
            6.710218389884138,
            7.3155435946081875,
            7.36029216741819,
            7.373243592908677,
            7.5781267121903095,
            7.638012372575368,
            7.888422633120497,
            7.941812984754424,
            8.260174318118976,
            8.478229114927,
            15.854786589842698,
            16.022631394705435,
            17.425926114701593,
            17.465404651703626,
            22.85357160351122,
            22.8989695981661,
            26.345739618746176,
            26.412966451234155,
            33.89057209818163,
            34.88337177192187,
            36.84099548776504,
            36.91786925978481
        ]
    },
    "born_effective_charge": {
        "avg_abs_trace": 1.3887671428571429,
        "tensors": [
            [
                [
                    1.36218,
                    0.0,
                    4e-05
                ],
                [
                    0.0,
                    1.18225,
                    0.0001
                ],
                [
                    0.0,
                    0.0,
                    1.03396
                ]
            ],
            [
                [
                    1.36218,
                    0.0,
                    -4e-05
                ],
                [
                    0.0,
                    1.18225,
                    -0.0001
                ],
                [
                    0.0,
                    0.0,
                    1.03405
                ]
            ],
            [
                [
                    0.96613,
                    3e-05,
                    -1e-05
                ],
                [
                    0.0,
                    0.99004,
                    0.0602
                ],
                [
                    0.0,
                    0.07045,
                    1.0913
                ]
            ],
            [
                [
                    0.96613,
                    -3e-05,
                    -1e-05
                ],
                [
                    0.0,
                    0.99005,
                    -0.06017
                ],
                [
                    0.0,
                    -0.07045,
                    1.0913
                ]
            ],
            [
                [
                    0.96613,
                    -3e-05,
                    1e-05
                ],
                [
                    0.0,
                    0.99005,
                    0.06017
                ],
                [
                    0.0,
                    0.0705,
                    1.09128
                ]
            ],
            [
                [
                    0.96613,
                    3e-05,
                    1e-05
                ],
                [
                    0.0,
                    0.99004,
                    -0.0602
                ],
                [
                    0.0,
                    -0.0705,
                    1.09128
                ]
            ],
            [
                [
                    2.41939,
                    0.0,
                    -0.0
                ],
                [
                    0.0,
                    0.23483,
                    -1e-05
                ],
                [
                    0.0,
                    0.0,
                    2.25427
                ]
            ],
            [
                [
                    2.41939,
                    0.0,
                    0.0
                ],
                [
                    0.0,
                    0.23483,
                    1e-05
                ],
                [
                    0.0,
                    0.0,
                    2.25467
                ]
            ],
            [
                [
                    -2.09565,
                    0.0,
                    -0.43326
                ],
                [
                    -5e-05,
                    -1.09561,
                    -5e-05
                ],
                [
                    -0.42815,
                    0.0,
                    -1.6163
                ]
            ],
            [
                [
                    -2.09599,
                    0.0,
                    -0.43321
                ],
                [
                    5e-05,
                    -1.09561,
                    5e-05
                ],
                [
                    -0.42829,
                    0.0,
                    -1.61656
                ]
            ],
            [
                [
                    -1.52219,
                    0.0,
                    0.00039
                ],
                [
                    0.0,
                    -1.20595,
                    -0.00016
                ],
                [
                    0.0,
                    0.0,
                    -2.23793
                ]
            ],
            [
                [
                    -1.52219,
                    0.0,
                    -0.00039
                ],
                [
                    0.0,
                    -1.20595,
                    0.00016
                ],
                [
                    0.0,
                    0.0,
                    -2.23846
                ]
            ],
            [
                [
                    -2.09565,
                    0.0,
                    0.43326
                ],
                [
                    -5e-05,
                    -1.09561,
                    5e-05
                ],
                [
                    0.42829,
                    0.0,
                    -1.61656
                ]
            ],
            [
                [
                    -2.09599,
                    0.0,
                    0.43321
                ],
                [
                    5e-05,
                    -1.09561,
                    -5e-05
                ],
                [
                    0.42815,
                    0.0,
                    -1.6163
                ]
            ]
        ]
    },
    "band_gap": 3.1710000000000003,
    "is_direct": false,
    "formula": "RbNa2BO3"
}