{
    "mp_id": "mp-8376",
    "nelements": 4,
    "nsites": 28,
    "elements": [
        "Al",
        "B",
        "Mg",
        "O"
    ],
    "structure": {
        "@module": "pymatgen.core.structure",
        "@class": "Structure",
        "charge": null,
        "lattice": {
            "matrix": [
                [
                    9.87434455,
                    0.0,
                    0.0
                ],
                [
                    0.0,
                    5.68625846,
                    0.0
                ],
                [
                    0.0,
                    0.0,
                    4.33569549
                ]
            ],
            "a": 9.87434455,
            "b": 5.68625846,
            "c": 4.33569549,
            "alpha": 90.0,
            "beta": 90.0,
            "gamma": 90.0,
            "volume": 243.4409565659358
        },
        "sites": [
            {
                "species": [
                    {
                        "element": "Mg",
                        "occu": 1
                    }
                ],
                "abc": [
                    0.77536355,
                    0.75,
                    0.48520858
                ],
                "xyz": [
                    7.656206844211153,
                    4.264693845,
                    2.1037166520153043
                ],
                "label": "Mg",
                "properties": {}
            },
            {
                "species": [
                    {
                        "element": "Mg",
                        "occu": 1
                    }
                ],
                "abc": [
                    0.72463645,
                    0.25,
                    0.98520858
                ],
                "xyz": [
                    7.155309980788847,
                    1.421564615,
                    4.271564397015304
                ],
                "label": "Mg",
                "properties": {}
            },
            {
                "species": [
                    {
                        "element": "Mg",
                        "occu": 1
                    }
                ],
                "abc": [
                    0.22463645,
                    0.25,
                    0.51479142
                ],
                "xyz": [
                    2.2181377057888474,
                    1.421564615,
                    2.2319788379846957
                ],
                "label": "Mg",
                "properties": {}
            },
            {
                "species": [
                    {
                        "element": "Mg",
                        "occu": 1
                    }
                ],
                "abc": [
                    0.27536355,
                    0.75,
                    0.01479142
                ],
                "xyz": [
                    2.7190345692111526,
                    4.264693845,
                    0.0641310929846958
                ],
                "label": "Mg",
                "properties": {}
            },
            {
                "species": [
                    {
                        "element": "Al",
                        "occu": 1
                    }
                ],
                "abc": [
                    0.5,
                    0.5,
                    0.5
                ],
                "xyz": [
                    4.937172275,
                    2.84312923,
                    2.167847745
                ],
                "label": "Al",
                "properties": {}
            },
            {
                "species": [
                    {
                        "element": "Al",
                        "occu": 1
                    }
                ],
                "abc": [
                    0.0,
                    0.5,
                    0.0
                ],
                "xyz": [
                    0.0,
                    2.84312923,
                    0.0
                ],
                "label": "Al",
                "properties": {}
            },
            {
                "species": [
                    {
                        "element": "Al",
                        "occu": 1
                    }
                ],
                "abc": [
                    0.5,
                    0.0,
                    0.5
                ],
                "xyz": [
                    4.937172275,
                    0.0,
                    2.167847745
                ],
                "label": "Al",
                "properties": {}
            },
            {
                "species": [
                    {
                        "element": "Al",
                        "occu": 1
                    }
                ],
                "abc": [
                    0.0,
                    0.0,
                    0.0
                ],
                "xyz": [
                    0.0,
                    0.0,
                    0.0
                ],
                "label": "Al",
                "properties": {}
            },
            {
                "species": [
                    {
                        "element": "B",
                        "occu": 1
                    }
                ],
                "abc": [
                    0.41320673,
                    0.25,
                    0.09097833
                ],
                "xyz": [
                    4.080145622398821,
                    1.421564615,
                    0.3944543350687317
                ],
                "label": "B",
                "properties": {}
            },
            {
                "species": [
                    {
                        "element": "B",
                        "occu": 1
                    }
                ],
                "abc": [
                    0.58679327,
                    0.75,
                    0.90902167
                ],
                "xyz": [
                    5.794198927601179,
                    4.264693845,
                    3.9412411549312685
                ],
                "label": "B",
                "properties": {}
            },
            {
                "species": [
                    {
                        "element": "B",
                        "occu": 1
                    }
                ],
                "abc": [
                    0.91320673,
                    0.25,
                    0.40902167
                ],
                "xyz": [
                    9.01731789739882,
                    1.421564615,
                    1.7733934099312683
                ],
                "label": "B",
                "properties": {}
            },
            {
                "species": [
                    {
                        "element": "B",
                        "occu": 1
                    }
                ],
                "abc": [
                    0.08679327,
                    0.75,
                    0.59097833
                ],
                "xyz": [
                    0.8570266526011786,
                    4.264693845,
                    2.5623020800687315
                ],
                "label": "B",
                "properties": {}
            },
            {
                "species": [
                    {
                        "element": "O",
                        "occu": 1
                    }
                ],
                "abc": [
                    0.64927813,
                    0.53847969,
                    0.76544636
                ],
                "xyz": [
                    6.411195964399692,
                    3.061934692800677,
                    3.3187423308889166
                ],
                "label": "O",
                "properties": {}
            },
            {
                "species": [
                    {
                        "element": "O",
                        "occu": 1
                    }
                ],
                "abc": [
                    0.85072187,
                    0.46152031,
                    0.26544636
                ],
                "xyz": [
                    8.400320860600308,
                    2.6243237671993227,
                    1.1508945858889164
                ],
                "label": "O",
                "properties": {}
            },
            {
                "species": [
                    {
                        "element": "O",
                        "occu": 1
                    }
                ],
                "abc": [
                    0.35072187,
                    0.03847969,
                    0.23455364
                ],
                "xyz": [
                    3.4631485856003086,
                    0.2188054628006774,
                    1.0169531591110836
                ],
                "label": "O",
                "properties": {}
            },
            {
                "species": [
                    {
                        "element": "O",
                        "occu": 1
                    }
                ],
                "abc": [
                    0.14927813,
                    0.96152031,
                    0.73455364
                ],
                "xyz": [
                    1.4740236893996916,
                    5.467452997199323,
                    3.1848009041110834
                ],
                "label": "O",
                "properties": {}
            },
            {
                "species": [
                    {
                        "element": "O",
                        "occu": 1
                    }
                ],
                "abc": [
                    0.85072187,
                    0.03847969,
                    0.26544636
                ],
                "xyz": [
                    8.400320860600308,
                    0.2188054628006774,
                    1.1508945858889164
                ],
                "label": "O",
                "properties": {}
            },
            {
                "species": [
                    {
                        "element": "O",
                        "occu": 1
                    }
                ],
                "abc": [
                    0.35072187,
                    0.46152031,
                    0.23455364
                ],
                "xyz": [
                    3.4631485856003086,
                    2.6243237671993227,
                    1.0169531591110836
                ],
                "label": "O",
                "properties": {}
            },
            {
                "species": [
                    {
                        "element": "O",
                        "occu": 1
                    }
                ],
                "abc": [
                    0.64927813,
                    0.96152031,
                    0.76544636
                ],
                "xyz": [
                    6.411195964399692,
                    5.467452997199323,
                    3.3187423308889166
                ],
                "label": "O",
                "properties": {}
            },
            {
                "species": [
                    {
                        "element": "O",
                        "occu": 1
                    }
                ],
                "abc": [
                    0.14927813,
                    0.53847969,
                    0.73455364
                ],
                "xyz": [
                    1.4740236893996916,
                    3.061934692800677,
                    3.1848009041110834
                ],
                "label": "O",
                "properties": {}
            },
            {
                "species": [
                    {
                        "element": "O",
                        "occu": 1
                    }
                ],
                "abc": [
                    0.08083626,
                    0.75,
                    0.25812391
                ],
                "xyz": [
                    0.7982050833733829,
                    4.264693845,
                    1.119146672448166
                ],
                "label": "O",
                "properties": {}
            },
            {
                "species": [
                    {
                        "element": "O",
                        "occu": 1
                    }
                ],
                "abc": [
                    0.41916374,
                    0.25,
                    0.75812391
                ],
                "xyz": [
                    4.138967191626617,
                    1.421564615,
                    3.286994417448166
                ],
                "label": "O",
                "properties": {}
            },
            {
                "species": [
                    {
                        "element": "O",
                        "occu": 1
                    }
                ],
                "abc": [
                    0.91916374,
                    0.25,
                    0.74187609
                ],
                "xyz": [
                    9.076139466626618,
                    1.421564615,
                    3.216548817551834
                ],
                "label": "O",
                "properties": {}
            },
            {
                "species": [
                    {
                        "element": "O",
                        "occu": 1
                    }
                ],
                "abc": [
                    0.58083626,
                    0.75,
                    0.24187609
                ],
                "xyz": [
                    5.735377358373383,
                    4.264693845,
                    1.048701072551834
                ],
                "label": "O",
                "properties": {}
            },
            {
                "species": [
                    {
                        "element": "O",
                        "occu": 1
                    }
                ],
                "abc": [
                    0.44401581,
                    0.75,
                    0.74612655
                ],
                "xyz": [
                    4.384365093587336,
                    4.264693845,
                    3.2349775178042597
                ],
                "label": "O",
                "properties": {}
            },
            {
                "species": [
                    {
                        "element": "O",
                        "occu": 1
                    }
                ],
                "abc": [
                    0.05598419,
                    0.25,
                    0.24612655
                ],
                "xyz": [
                    0.5528071814126645,
                    1.421564615,
                    1.0671297728042595
                ],
                "label": "O",
                "properties": {}
            },
            {
                "species": [
                    {
                        "element": "O",
                        "occu": 1
                    }
                ],
                "abc": [
                    0.55598419,
                    0.25,
                    0.25387345
                ],
                "xyz": [
                    5.489979456412664,
                    1.421564615,
                    1.1007179721957405
                ],
                "label": "O",
                "properties": {}
            },
            {
                "species": [
                    {
                        "element": "O",
                        "occu": 1
                    }
                ],
                "abc": [
                    0.94401581,
                    0.75,
                    0.75387345
                ],
                "xyz": [
                    9.321537368587336,
                    4.264693845,
                    3.2685657171957403
                ],
                "label": "O",
                "properties": {}
            }
        ]
    },
    "spacegroup": {
        "source": "spglib",
        "symbol": "Pnma",
        "number": 62,
        "point_group": "mmm",
        "crystal_system": "orthorhombic",
        "hall": "-P 2ac 2n"
    },
    "dielectric": {
        "epsilon_ionic": [
            [
                4.70657306,
                -0.0,
                -0.0
            ],
            [
                -0.0,
                5.14850659,
                0.0
            ],
            [
                -0.0,
                0.0,
                5.05359166
            ]
        ],
        "epsilon_ionic_avg": 4.969557103333334,
        "epsilon_ionic_eig": [
            4.70657306,
            5.14850659,
            5.05359166
        ],
        "epsilon_electronic": [
            [
                2.86604536,
                0.0,
                0.0
            ],
            [
                0.0,
                2.98749521,
                -0.0
            ],
            [
                0.0,
                0.0,
                3.01324051
            ]
        ],
        "epsilon_electronic_avg": 2.955593693333333,
        "epsilon_electronic_eig": [
            2.86604536,
            2.98749521,
            3.01324051
        ]
    },
    "phonon": {
        "lowest_freq": -0.05190159896983264,
        "frequency": [
            -0.05190159896983264,
            -0.027759017580399534,
            -0.015124955564722006,
            3.9782604405868716,
            4.464291338828625,
            6.540582058655245,
            6.69190744454639,
            6.828674720115597,
            7.276818255359988,
            7.751171741746369,
            8.046036330246741,
            8.124413092646918,
            8.24484631030018,
            8.600300177683838,
            8.77130084044828,
            8.935870022233214,
            9.288752026085866,
            9.485157727276688,
            9.696472143422012,
            9.797085600321761,
            10.5222331114898,
            10.978534064117213,
            11.218621319463622,
            11.262403661102011,
            11.271737726628896,
            11.361581308962972,
            11.733827746682152,
            11.962938703608254,
            12.027778097519217,
            12.19496993776198,
            12.394843551002248,
            12.625146409921816,
            12.90197343487958,
            13.289831273310217,
            13.353581467876483,
            13.632734383598896,
            13.797319010119761,
            13.81233785483085,
            13.993324406406531,
            14.08292687663046,
            14.099799442851056,
            14.262446954966526,
            14.625169927756739,
            14.698819846365817,
            14.786157677945795,
            14.844771174437268,
            15.328625269922906,
            16.00120101459762,
            16.11932931985454,
            16.188670029084992,
            16.357789662739762,
            16.69137945584257,
            16.853233371151006,
            17.01317934988327,
            17.080488464247832,
            17.60931861833708,
            18.051805906429365,
            18.146808616190913,
            20.341154697012705,
            20.39736720695172,
            20.670386370469686,
            20.676315157211103,
            20.717781899019332,
            20.83938800754111,
            22.254461706826934,
            22.617838945238564,
            22.739426987906302,
            23.02089549770889,
            23.155191201781953,
            23.27528980342959,
            23.606635799599395,
            23.919131382497802,
            25.351199634241286,
            25.668286847284495,
            26.717636896450223,
            27.36121048034672,
            27.945288864145937,
            29.044034625512534,
            29.474106070603902,
            29.631596544546646,
            30.868367897036947,
            31.16240124943333,
            31.90336354741968,
            32.16047854426802
        ]
    },
    "born_effective_charge": {
        "avg_abs_trace": 2.0206871428571427,
        "tensors": [
            [
                [
                    2.40125,
                    0.0,
                    -0.08968
                ],
                [
                    0.0,
                    2.00082,
                    1e-05
                ],
                [
                    0.01469,
                    0.0,
                    1.92819
                ]
            ],
            [
                [
                    2.40125,
                    0.0,
                    0.08968
                ],
                [
                    -0.0,
                    2.00082,
                    1e-05
                ],
                [
                    -0.01469,
                    0.0,
                    1.92819
                ]
            ],
            [
                [
                    2.40125,
                    0.0,
                    -0.08968
                ],
                [
                    -0.0,
                    2.00082,
                    -1e-05
                ],
                [
                    0.01469,
                    0.0,
                    1.9282
                ]
            ],
            [
                [
                    2.40125,
                    0.0,
                    0.08968
                ],
                [
                    0.0,
                    2.00082,
                    -1e-05
                ],
                [
                    -0.01469,
                    0.0,
                    1.9282
                ]
            ],
            [
                [
                    2.28779,
                    0.39057,
                    0.16555
                ],
                [
                    0.36184,
                    2.99198,
                    0.15827
                ],
                [
                    0.01364,
                    -0.07165,
                    2.98619
                ]
            ],
            [
                [
                    2.28779,
                    0.39057,
                    -0.16555
                ],
                [
                    0.36184,
                    2.99198,
                    -0.15827
                ],
                [
                    -0.01364,
                    0.07165,
                    2.98619
                ]
            ],
            [
                [
                    2.28779,
                    -0.39057,
                    0.16555
                ],
                [
                    -0.36184,
                    2.99198,
                    -0.15827
                ],
                [
                    0.01364,
                    0.07165,
                    2.98619
                ]
            ],
            [
                [
                    2.28779,
                    -0.39057,
                    -0.16555
                ],
                [
                    -0.36184,
                    2.99198,
                    0.15827
                ],
                [
                    -0.01364,
                    -0.07165,
                    2.98619
                ]
            ],
            [
                [
                    1.7599,
                    0.0,
                    -0.04145
                ],
                [
                    4e-05,
                    2.22496,
                    -5e-05
                ],
                [
                    0.05296,
                    0.0,
                    2.63624
                ]
            ],
            [
                [
                    1.7599,
                    0.0,
                    -0.04143
                ],
                [
                    -4e-05,
                    2.22496,
                    5e-05
                ],
                [
                    0.05296,
                    0.0,
                    2.63602
                ]
            ],
            [
                [
                    1.7599,
                    0.0,
                    0.04145
                ],
                [
                    4e-05,
                    2.22496,
                    5e-05
                ],
                [
                    -0.05296,
                    0.0,
                    2.63602
                ]
            ],
            [
                [
                    1.7599,
                    0.0,
                    0.04143
                ],
                [
                    -4e-05,
                    2.22496,
                    -5e-05
                ],
                [
                    -0.05296,
                    0.0,
                    2.63624
                ]
            ],
            [
                [
                    -1.62697,
                    0.2057,
                    -0.00897
                ],
                [
                    0.25211,
                    -1.96262,
                    -0.19704
                ],
                [
                    -0.00471,
                    -0.13846,
                    -1.61482
                ]
            ],
            [
                [
                    -1.62698,
                    0.20571,
                    0.00899
                ],
                [
                    0.2519,
                    -1.96264,
                    0.19697
                ],
                [
                    0.00471,
                    0.13846,
                    -1.61482
                ]
            ],
            [
                [
                    -1.62698,
                    -0.20571,
                    -0.00899
                ],
                [
                    -0.25211,
                    -1.96262,
                    0.19704
                ],
                [
                    -0.00468,
                    0.13852,
                    -1.61482
                ]
            ],
            [
                [
                    -1.62697,
                    -0.2057,
                    0.00897
                ],
                [
                    -0.2519,
                    -1.96264,
                    -0.19697
                ],
                [
                    0.00468,
                    -0.13852,
                    -1.61482
                ]
            ],
            [
                [
                    -1.62698,
                    -0.20571,
                    0.00899
                ],
                [
                    -0.25211,
                    -1.96262,
                    -0.19704
                ],
                [
                    0.00471,
                    -0.13846,
                    -1.61482
                ]
            ],
            [
                [
                    -1.62698,
                    0.20571,
                    -0.00899
                ],
                [
                    0.2519,
                    -1.96264,
                    -0.19697
                ],
                [
                    -0.00468,
                    -0.13852,
                    -1.61482
                ]
            ],
            [
                [
                    -1.62697,
                    -0.2057,
                    -0.00897
                ],
                [
                    -0.2519,
                    -1.96264,
                    0.19697
                ],
                [
                    -0.00471,
                    0.13846,
                    -1.61482
                ]
            ],
            [
                [
                    -1.62697,
                    0.2057,
                    0.00897
                ],
                [
                    0.25211,
                    -1.96262,
                    0.19704
                ],
                [
                    0.00468,
                    0.13852,
                    -1.61482
                ]
            ],
            [
                [
                    -1.31159,
                    0.0,
                    -0.1106
                ],
                [
                    4e-05,
                    -1.60393,
                    -4e-05
                ],
                [
                    -0.14582,
                    0.0,
                    -2.60311
                ]
            ],
            [
                [
                    -1.31166,
                    0.0,
                    0.11069
                ],
                [
                    -4e-05,
                    -1.60393,
                    -4e-05
                ],
                [
                    0.14582,
                    0.0,
                    -2.60311
                ]
            ],
            [
                [
                    -1.31166,
                    0.0,
                    -0.11069
                ],
                [
                    -4e-05,
                    -1.60393,
                    4e-05
                ],
                [
                    -0.14586,
                    0.0,
                    -2.60304
                ]
            ],
            [
                [
                    -1.31159,
                    0.0,
                    0.1106
                ],
                [
                    4e-05,
                    -1.60393,
                    4e-05
                ],
                [
                    0.14586,
                    0.0,
                    -2.60304
                ]
            ],
            [
                [
                    -1.88338,
                    0.0,
                    -0.13177
                ],
                [
                    -0.0,
                    -1.68858,
                    4e-05
                ],
                [
                    -0.13801,
                    0.0,
                    -1.71779
                ]
            ],
            [
                [
                    -1.88334,
                    0.0,
                    0.13174
                ],
                [
                    0.0,
                    -1.68858,
                    4e-05
                ],
                [
                    0.13801,
                    0.0,
                    -1.71779
                ]
            ],
            [
                [
                    -1.88334,
                    0.0,
                    -0.13174
                ],
                [
                    0.0,
                    -1.68858,
                    -4e-05
                ],
                [
                    -0.13815,
                    0.0,
                    -1.7178
                ]
            ],
            [
                [
                    -1.88338,
                    0.0,
                    0.13177
                ],
                [
                    -0.0,
                    -1.68858,
                    -4e-05
                ],
                [
                    0.13815,
                    0.0,
                    -1.7178
                ]
            ]
        ]
    },
    "band_gap": 6.170299999999999,
    "is_direct": false,
    "formula": "MgAlBO4"
}