{
    "mp_id": "mp-8450",
    "nelements": 4,
    "nsites": 18,
    "elements": [
        "Ge",
        "Li",
        "O",
        "Rb"
    ],
    "structure": {
        "@module": "pymatgen.core.structure",
        "@class": "Structure",
        "charge": null,
        "lattice": {
            "matrix": [
                [
                    5.62352927,
                    -0.00074541,
                    -0.00106734
                ],
                [
                    0.50805489,
                    5.72513261,
                    0.00022461
                ],
                [
                    2.44787435,
                    0.811942,
                    8.40100435
                ]
            ],
            "a": 5.6235294206927975,
            "b": 5.747631096703056,
            "c": 8.787958393931484,
            "alpha": 83.2988751772451,
            "beta": 73.83794952817632,
            "gamma": 84.93638551736342,
            "volume": 270.49079568833383
        },
        "sites": [
            {
                "species": [
                    {
                        "element": "Rb",
                        "occu": 1
                    }
                ],
                "abc": [
                    0.47046925,
                    0.84909235,
                    0.72961547
                ],
                "xyz": [
                    4.863090112865233,
                    5.453221053345632,
                    6.129191301280732
                ],
                "label": "Rb",
                "properties": {}
            },
            {
                "species": [
                    {
                        "element": "Rb",
                        "occu": 1
                    }
                ],
                "abc": [
                    0.52953075,
                    0.15090765,
                    0.27038453
                ],
                "xyz": [
                    3.7163683971347665,
                    1.083108146654369,
                    2.2709703187192667
                ],
                "label": "Rb",
                "properties": {}
            },
            {
                "species": [
                    {
                        "element": "Rb",
                        "occu": 1
                    }
                ],
                "abc": [
                    0.78619671,
                    0.72403974,
                    0.02148146
                ],
                "xyz": [
                    4.84163605605858,
                    4.162079187115641,
                    0.179789326273901
                ],
                "label": "Rb",
                "properties": {}
            },
            {
                "species": [
                    {
                        "element": "Rb",
                        "occu": 1
                    }
                ],
                "abc": [
                    0.21380329,
                    0.27596026,
                    0.97851854
                ],
                "xyz": [
                    3.7378224539414187,
                    2.3742500128843598,
                    8.220372293726099
                ],
                "label": "Rb",
                "properties": {}
            },
            {
                "species": [
                    {
                        "element": "Li",
                        "occu": 1
                    }
                ],
                "abc": [
                    0.07224981,
                    0.81537836,
                    0.56070279
                ],
                "xyz": [
                    2.1930858618995557,
                    5.123353527311628,
                    4.71057260486837
                ],
                "label": "Li",
                "properties": {}
            },
            {
                "species": [
                    {
                        "element": "Li",
                        "occu": 1
                    }
                ],
                "abc": [
                    0.92775019,
                    0.18462164,
                    0.43929721
                ],
                "xyz": [
                    6.386372648100444,
                    1.4129756726883724,
                    3.6895890151316286
                ],
                "label": "Li",
                "properties": {}
            },
            {
                "species": [
                    {
                        "element": "Li",
                        "occu": 1
                    }
                ],
                "abc": [
                    0.30453757,
                    0.40930432,
                    0.58047206
                ],
                "xyz": [
                    3.3414476665494597,
                    2.8144041498363417,
                    4.876315189826811
                ],
                "label": "Li",
                "properties": {}
            },
            {
                "species": [
                    {
                        "element": "Li",
                        "occu": 1
                    }
                ],
                "abc": [
                    0.69546243,
                    0.59069568,
                    0.41952794
                ],
                "xyz": [
                    5.23801084345054,
                    3.721925050163658,
                    3.523846430173187
                ],
                "label": "Li",
                "properties": {}
            },
            {
                "species": [
                    {
                        "element": "Ge",
                        "occu": 1
                    }
                ],
                "abc": [
                    0.14540324,
                    0.68670095,
                    0.27328982
                ],
                "xyz": [
                    1.8355402922020971,
                    4.153241100164291,
                    2.295908011836915
                ],
                "label": "Ge",
                "properties": {}
            },
            {
                "species": [
                    {
                        "element": "Ge",
                        "occu": 1
                    }
                ],
                "abc": [
                    0.85459676,
                    0.31329905,
                    0.72671018
                ],
                "xyz": [
                    6.743918217797902,
                    2.383088099835709,
                    6.104253608163084
                ],
                "label": "Ge",
                "properties": {}
            },
            {
                "species": [
                    {
                        "element": "O",
                        "occu": 1
                    }
                ],
                "abc": [
                    0.01387824,
                    0.57255101,
                    0.72505395
                ],
                "xyz": [
                    2.1437729958322063,
                    3.8666218675314576,
                    6.091295175816356
                ],
                "label": "O",
                "properties": {}
            },
            {
                "species": [
                    {
                        "element": "O",
                        "occu": 1
                    }
                ],
                "abc": [
                    0.98612176,
                    0.42744899,
                    0.27494605
                ],
                "xyz": [
                    6.435685514167793,
                    2.6697073324685423,
                    2.308866444183643
                ],
                "label": "O",
                "properties": {}
            },
            {
                "species": [
                    {
                        "element": "O",
                        "occu": 1
                    }
                ],
                "abc": [
                    0.89675972,
                    0.86965138,
                    0.39230112
                ],
                "xyz": [
                    6.4450890189055245,
                    5.296726777281656,
                    3.2949616005067885
                ],
                "label": "O",
                "properties": {}
            },
            {
                "species": [
                    {
                        "element": "O",
                        "occu": 1
                    }
                ],
                "abc": [
                    0.10324028,
                    0.13034862,
                    0.60769888
                ],
                "xyz": [
                    2.1343694910944757,
                    1.2396024227183435,
                    5.105200019493211
                ],
                "label": "O",
                "properties": {}
            },
            {
                "species": [
                    {
                        "element": "O",
                        "occu": 1
                    }
                ],
                "abc": [
                    0.27456507,
                    0.80068826,
                    0.07425856
                ],
                "xyz": [
                    2.1325939178151265,
                    4.644135447944851,
                    0.6237332738930008
                ],
                "label": "O",
                "properties": {}
            },
            {
                "species": [
                    {
                        "element": "O",
                        "occu": 1
                    }
                ],
                "abc": [
                    0.72543493,
                    0.19931174,
                    0.92574144
                ],
                "xyz": [
                    6.446864592184875,
                    1.89219375205515,
                    7.776428346106999
                ],
                "label": "O",
                "properties": {}
            },
            {
                "species": [
                    {
                        "element": "O",
                        "occu": 1
                    }
                ],
                "abc": [
                    0.3690841,
                    0.64123103,
                    0.38938106
                ],
                "xyz": [
                    3.354491709002655,
                    3.9870123980364274,
                    3.2709420675459646
                ],
                "label": "O",
                "properties": {}
            },
            {
                "species": [
                    {
                        "element": "O",
                        "occu": 1
                    }
                ],
                "abc": [
                    0.6309159,
                    0.35876897,
                    0.61061894
                ],
                "xyz": [
                    5.224966800997345,
                    2.549316801963573,
                    5.1292195524540345
                ],
                "label": "O",
                "properties": {}
            }
        ]
    },
    "spacegroup": {
        "source": "spglib",
        "symbol": "P-1",
        "number": 2,
        "point_group": "-1",
        "crystal_system": "triclinic",
        "hall": "-P 1"
    },
    "dielectric": {
        "epsilon_ionic": [
            [
                6.40576319,
                0.71803815,
                -0.91707381
            ],
            [
                0.71803815,
                5.79873078,
                0.46803624
            ],
            [
                -0.91707381,
                0.46803624,
                7.10317748
            ]
        ],
        "epsilon_ionic_avg": 6.435890483333334,
        "epsilon_ionic_eig": [
            4.9290342291833715,
            7.735922022793795,
            6.642715198022836
        ],
        "epsilon_electronic": [
            [
                2.94739746,
                -0.01254777,
                0.00876265
            ],
            [
                -0.01254693,
                2.88487793,
                0.02773776
            ],
            [
                0.00876315,
                0.02773978,
                2.97440717
            ]
        ],
        "epsilon_electronic_avg": 2.9355608533333317,
        "epsilon_electronic_eig": [
            2.874115188429619,
            2.9495225219391905,
            2.983044849631186
        ]
    },
    "phonon": {
        "lowest_freq": -0.08718995459163081,
        "frequency": [
            -0.08718995459163081,
            -0.0443610273711818,
            -0.027681340587717106,
            1.6004099120145365,
            1.8252874228809408,
            1.8823656253997922,
            2.1717128008539013,
            2.2255358210329574,
            2.314186621928633,
            2.445454889857231,
            2.777459774560549,
            2.7875561763587147,
            3.0341145869618713,
            3.2281258372276604,
            3.4399313636119007,
            3.508537188051935,
            4.04027934914358,
            4.390085377368069,
            5.153662586010615,
            5.246007825200757,
            5.577846808608319,
            5.686006084645246,
            6.20348369781682,
            6.78681973332884,
            8.309819304946686,
            8.4708086768599,
            8.505393345735378,
            8.768723133212493,
            9.062084419545652,
            9.179539725471862,
            9.821498761939669,
            10.09185315768028,
            10.35792524956978,
            10.809839168668493,
            11.271342294842954,
            11.904172691341078,
            12.104201259599158,
            12.264617336801829,
            12.514207695777221,
            13.587305017125315,
            13.831758208668997,
            14.566494568684181,
            15.264018817889665,
            16.389023456827378,
            16.922710605820967,
            18.070057770630513,
            19.004582665268437,
            19.41274697669201,
            20.506569076985784,
            20.907760146216905,
            21.365346365119315,
            21.629436097948815,
            22.344730885591858,
            22.6066379671183
        ]
    },
    "born_effective_charge": {
        "avg_abs_trace": 1.5801814814814814,
        "tensors": [
            [
                [
                    1.29081,
                    0.00343,
                    -0.01341
                ],
                [
                    -0.0165,
                    1.30827,
                    -0.00828
                ],
                [
                    -0.03206,
                    0.0178,
                    1.26566
                ]
            ],
            [
                [
                    1.29083,
                    0.00344,
                    -0.01348
                ],
                [
                    -0.0165,
                    1.30817,
                    -0.00822
                ],
                [
                    -0.03202,
                    0.01789,
                    1.26565
                ]
            ],
            [
                [
                    1.22946,
                    -0.07322,
                    0.00482
                ],
                [
                    -0.07774,
                    1.18483,
                    0.04745
                ],
                [
                    -0.01318,
                    -0.0167,
                    1.15459
                ]
            ],
            [
                [
                    1.22954,
                    -0.07325,
                    0.00492
                ],
                [
                    -0.07763,
                    1.18481,
                    0.04741
                ],
                [
                    -0.01334,
                    -0.01671,
                    1.15468
                ]
            ],
            [
                [
                    0.73096,
                    0.00782,
                    -0.01964
                ],
                [
                    0.03428,
                    1.0962,
                    -0.02901
                ],
                [
                    0.06659,
                    0.10167,
                    1.03757
                ]
            ],
            [
                [
                    0.73095,
                    0.00782,
                    -0.01964
                ],
                [
                    0.03428,
                    1.0962,
                    -0.02902
                ],
                [
                    0.06657,
                    0.10166,
                    1.03755
                ]
            ],
            [
                [
                    1.19465,
                    -0.06969,
                    -0.02163
                ],
                [
                    -0.00188,
                    0.78463,
                    -0.11504
                ],
                [
                    -0.01455,
                    -0.14581,
                    0.95159
                ]
            ],
            [
                [
                    1.19466,
                    -0.06969,
                    -0.02164
                ],
                [
                    -0.00189,
                    0.78463,
                    -0.11504
                ],
                [
                    -0.01456,
                    -0.1458,
                    0.95158
                ]
            ],
            [
                [
                    2.70517,
                    0.06861,
                    -0.03667
                ],
                [
                    0.09689,
                    2.51062,
                    0.00381
                ],
                [
                    0.01414,
                    0.01883,
                    2.88741
                ]
            ],
            [
                [
                    2.70521,
                    0.06861,
                    -0.03664
                ],
                [
                    0.09691,
                    2.51066,
                    0.0038
                ],
                [
                    0.01419,
                    0.01886,
                    2.88735
                ]
            ],
            [
                [
                    -1.65235,
                    -0.31546,
                    0.06692
                ],
                [
                    -0.40679,
                    -2.00703,
                    0.06118
                ],
                [
                    0.01675,
                    -0.00796,
                    -1.6221
                ]
            ],
            [
                [
                    -1.65232,
                    -0.31548,
                    0.06691
                ],
                [
                    -0.407,
                    -2.00705,
                    0.06115
                ],
                [
                    0.0168,
                    -0.00799,
                    -1.6219
                ]
            ],
            [
                [
                    -1.70971,
                    0.28967,
                    0.25321
                ],
                [
                    0.301,
                    -1.92801,
                    -0.33028
                ],
                [
                    0.17739,
                    -0.34084,
                    -1.69664
                ]
            ],
            [
                [
                    -1.7097,
                    0.28964,
                    0.25326
                ],
                [
                    0.301,
                    -1.92796,
                    -0.33035
                ],
                [
                    0.17726,
                    -0.34075,
                    -1.69653
                ]
            ],
            [
                [
                    -1.5523,
                    -0.07222,
                    0.16151
                ],
                [
                    -0.06396,
                    -1.51707,
                    0.23686
                ],
                [
                    0.15288,
                    0.27251,
                    -2.20208
                ]
            ],
            [
                [
                    -1.55238,
                    -0.07225,
                    0.16163
                ],
                [
                    -0.064,
                    -1.51705,
                    0.23662
                ],
                [
                    0.15283,
                    0.27259,
                    -2.20215
                ]
            ],
            [
                [
                    -2.23672,
                    0.16111,
                    -0.39526
                ],
                [
                    0.13479,
                    -1.4325,
                    0.13353
                ],
                [
                    -0.36773,
                    0.10044,
                    -1.77612
                ]
            ],
            [
                [
                    -2.23677,
                    0.16112,
                    -0.39517
                ],
                [
                    0.13474,
                    -1.43236,
                    0.13343
                ],
                [
                    -0.36795,
                    0.10032,
                    -1.77611
                ]
            ]
        ]
    },
    "band_gap": 3.4062,
    "is_direct": false,
    "formula": "Rb2Li2GeO4"
}