{
    "mp_id": "mp-8891",
    "nelements": 4,
    "nsites": 11,
    "elements": [
        "B",
        "K",
        "O",
        "Zr"
    ],
    "structure": {
        "@module": "pymatgen.core.structure",
        "@class": "Structure",
        "charge": null,
        "lattice": {
            "matrix": [
                [
                    2.66130847,
                    1.53650734,
                    5.87385802
                ],
                [
                    -2.66130847,
                    1.53650734,
                    5.87385802
                ],
                [
                    0.0,
                    -3.07301368,
                    5.87385802
                ]
            ],
            "a": 6.629149690381561,
            "b": 6.629149690381561,
            "c": 6.629149350903588,
            "alpha": 47.33839575311145,
            "beta": 47.33839575311145,
            "gamma": 47.338398264410884,
            "volume": 144.11343051128154
        },
        "sites": [
            {
                "species": [
                    {
                        "element": "K",
                        "occu": 1
                    }
                ],
                "abc": [
                    0.78975057,
                    0.78975057,
                    0.78975057
                ],
                "xyz": [
                    0.0,
                    7.897505698295504e-07,
                    13.916648158182216
                ],
                "label": "K",
                "properties": {}
            },
            {
                "species": [
                    {
                        "element": "K",
                        "occu": 1
                    }
                ],
                "abc": [
                    0.21024943,
                    0.21024943,
                    0.21024943
                ],
                "xyz": [
                    0.0,
                    2.1024942997716067e-07,
                    3.7049259018177856
                ],
                "label": "K",
                "properties": {}
            },
            {
                "species": [
                    {
                        "element": "Zr",
                        "occu": 1
                    }
                ],
                "abc": [
                    0.0,
                    0.0,
                    0.0
                ],
                "xyz": [
                    0.0,
                    0.0,
                    0.0
                ],
                "label": "Zr",
                "properties": {}
            },
            {
                "species": [
                    {
                        "element": "B",
                        "occu": 1
                    }
                ],
                "abc": [
                    0.59624407,
                    0.59624407,
                    0.59624407
                ],
                "xyz": [
                    0.0,
                    5.962440701168248e-07,
                    10.506759037340824
                ],
                "label": "B",
                "properties": {}
            },
            {
                "species": [
                    {
                        "element": "B",
                        "occu": 1
                    }
                ],
                "abc": [
                    0.40375593,
                    0.40375593,
                    0.40375593
                ],
                "xyz": [
                    0.0,
                    4.037559300229532e-07,
                    7.114815022659175
                ],
                "label": "B",
                "properties": {}
            },
            {
                "species": [
                    {
                        "element": "O",
                        "occu": 1
                    }
                ],
                "abc": [
                    0.74570972,
                    0.29575097,
                    0.74570972
                ],
                "xyz": [
                    1.1974790325256124,
                    -0.6913641763625051,
                    10.497585245885187
                ],
                "label": "O",
                "properties": {}
            },
            {
                "species": [
                    {
                        "element": "O",
                        "occu": 1
                    }
                ],
                "abc": [
                    0.25429028,
                    0.25429028,
                    0.70424903
                ],
                "xyz": [
                    0.0,
                    -1.3827291398954202,
                    7.123988814114812
                ],
                "label": "O",
                "properties": {}
            },
            {
                "species": [
                    {
                        "element": "O",
                        "occu": 1
                    }
                ],
                "abc": [
                    0.70424903,
                    0.25429028,
                    0.25429028
                ],
                "xyz": [
                    1.1974790325256126,
                    0.6913651763625052,
                    7.123988814114812
                ],
                "label": "O",
                "properties": {}
            },
            {
                "species": [
                    {
                        "element": "O",
                        "occu": 1
                    }
                ],
                "abc": [
                    0.25429028,
                    0.70424903,
                    0.25429028
                ],
                "xyz": [
                    -1.1974790325256126,
                    0.6913651763625052,
                    7.123988814114812
                ],
                "label": "O",
                "properties": {}
            },
            {
                "species": [
                    {
                        "element": "O",
                        "occu": 1
                    }
                ],
                "abc": [
                    0.74570972,
                    0.74570972,
                    0.29575097
                ],
                "xyz": [
                    0.0,
                    1.38273013989542,
                    10.497585245885189
                ],
                "label": "O",
                "properties": {}
            },
            {
                "species": [
                    {
                        "element": "O",
                        "occu": 1
                    }
                ],
                "abc": [
                    0.29575097,
                    0.74570972,
                    0.74570972
                ],
                "xyz": [
                    -1.1974790325256124,
                    -0.6913641763625051,
                    10.497585245885187
                ],
                "label": "O",
                "properties": {}
            }
        ]
    },
    "spacegroup": {
        "source": "spglib",
        "symbol": "R-3m",
        "number": 166,
        "point_group": "-3m",
        "crystal_system": "trigonal",
        "hall": "-R 3 2\""
    },
    "dielectric": {
        "epsilon_ionic": [
            [
                5.7792414,
                2e-08,
                0.0
            ],
            [
                2e-08,
                5.77922592,
                6.87e-06
            ],
            [
                0.0,
                6.87e-06,
                4.8853497
            ]
        ],
        "epsilon_ionic_avg": 5.481272340000001,
        "epsilon_ionic_eig": [
            5.779241400025842,
            5.779225920026961,
            4.8853496999472
        ],
        "epsilon_electronic": [
            [
                3.34891453,
                0.0,
                0.0
            ],
            [
                0.0,
                3.34891501,
                0.0
            ],
            [
                0.0,
                0.0,
                2.72351223
            ]
        ],
        "epsilon_electronic_avg": 3.1404472566666666,
        "epsilon_electronic_eig": [
            3.34891453,
            3.34891501,
            2.72351223
        ]
    },
    "phonon": {
        "lowest_freq": -0.0277864285872738,
        "frequency": [
            -0.0277864285872738,
            -0.027786426608248992,
            -0.025028133115815913,
            2.4038088220257854,
            2.4038089287814177,
            3.7018498668630886,
            4.0313351791453265,
            4.1119387939868,
            4.576054821465775,
            4.57605514725749,
            5.134250571120819,
            5.134250904334175,
            5.837871291464458,
            6.8287411823288435,
            6.828741325488541,
            9.887251019531877,
            9.88725150154679,
            10.04571026692053,
            10.257058503153873,
            10.257058836738963,
            10.371177014658956,
            17.648746972566034,
            17.64874718028627,
            17.653784923389562,
            17.653785061830202,
            20.69399206150338,
            21.65929979806407,
            29.152622256294062,
            29.95929281594575,
            35.976436995348436,
            35.97643927111692,
            36.01054794379995,
            36.01055021741271
        ]
    },
    "born_effective_charge": {
        "avg_abs_trace": 2.249088484848485,
        "tensors": [
            [
                [
                    1.17845,
                    -1e-05,
                    -3e-05
                ],
                [
                    0.0,
                    1.17857,
                    2e-05
                ],
                [
                    0.0,
                    0.0,
                    1.25883
                ]
            ],
            [
                [
                    1.17845,
                    1e-05,
                    3e-05
                ],
                [
                    0.0,
                    1.17853,
                    -1e-05
                ],
                [
                    0.0,
                    0.0,
                    1.25885
                ]
            ],
            [
                [
                    5.44252,
                    -0.0,
                    -0.0
                ],
                [
                    0.0,
                    5.44216,
                    -0.0
                ],
                [
                    0.0,
                    0.0,
                    4.15872
                ]
            ],
            [
                [
                    3.43101,
                    5e-05,
                    -0.0
                ],
                [
                    0.0,
                    3.43111,
                    1e-05
                ],
                [
                    0.0,
                    0.0,
                    0.55529
                ]
            ],
            [
                [
                    3.43101,
                    -5e-05,
                    0.0
                ],
                [
                    0.0,
                    3.4311,
                    -2e-05
                ],
                [
                    0.0,
                    0.0,
                    0.55535
                ]
            ],
            [
                [
                    -2.96425,
                    0.90186,
                    -0.61025
                ],
                [
                    0.90194,
                    -1.92284,
                    0.3524
                ],
                [
                    -0.33051,
                    0.19082,
                    -1.2978
                ]
            ],
            [
                [
                    -1.40218,
                    -2e-05,
                    5e-05
                ],
                [
                    0.0,
                    -3.48502,
                    -0.7047
                ],
                [
                    0.0,
                    -0.38162,
                    -1.29788
                ]
            ],
            [
                [
                    -2.96425,
                    -0.90186,
                    0.61025
                ],
                [
                    -0.90189,
                    -1.92287,
                    0.35235
                ],
                [
                    0.33049,
                    0.19081,
                    -1.29788
                ]
            ],
            [
                [
                    -2.96429,
                    0.90189,
                    -0.61031
                ],
                [
                    0.90189,
                    -1.92287,
                    0.35235
                ],
                [
                    -0.33049,
                    0.19081,
                    -1.29788
                ]
            ],
            [
                [
                    -1.40218,
                    2e-05,
                    -5e-05
                ],
                [
                    0.0,
                    -3.48505,
                    -0.70481
                ],
                [
                    0.0,
                    -0.38164,
                    -1.2978
                ]
            ],
            [
                [
                    -2.96429,
                    -0.90189,
                    0.61031
                ],
                [
                    -0.90194,
                    -1.92284,
                    0.3524
                ],
                [
                    0.33051,
                    0.19082,
                    -1.2978
                ]
            ]
        ]
    },
    "band_gap": 3.8679,
    "is_direct": true,
    "formula": "K2Zr(BO3)2"
}