{
    "mp_id": "mp-8207",
    "nelements": 3,
    "nsites": 10,
    "elements": [
        "O",
        "Pt",
        "Zn"
    ],
    "structure": {
        "@module": "pymatgen.core.structure",
        "@class": "Structure",
        "charge": null,
        "lattice": {
            "matrix": [
                [
                    3.53023721,
                    -4.92323616,
                    0.0
                ],
                [
                    3.53023721,
                    4.92323616,
                    0.0
                ],
                [
                    0.0,
                    0.0,
                    3.13704942
                ]
            ],
            "a": 6.058120917083129,
            "b": 6.058120917083129,
            "c": 3.13704942,
            "alpha": 90.0,
            "beta": 90.0,
            "gamma": 108.71469726625902,
            "volume": 109.0450392390915
        },
        "sites": [
            {
                "species": [
                    {
                        "element": "Zn",
                        "occu": 1
                    }
                ],
                "abc": [
                    0.5,
                    0.5,
                    0.0
                ],
                "xyz": [
                    3.53023721,
                    0.0,
                    0.0
                ],
                "label": "Zn",
                "properties": {}
            },
            {
                "species": [
                    {
                        "element": "Pt",
                        "occu": 1
                    }
                ],
                "abc": [
                    0.5,
                    0.0,
                    0.5
                ],
                "xyz": [
                    1.765118605,
                    -2.46161808,
                    1.56852471
                ],
                "label": "Pt",
                "properties": {}
            },
            {
                "species": [
                    {
                        "element": "Pt",
                        "occu": 1
                    }
                ],
                "abc": [
                    0.0,
                    0.0,
                    0.0
                ],
                "xyz": [
                    0.0,
                    0.0,
                    0.0
                ],
                "label": "Pt",
                "properties": {}
            },
            {
                "species": [
                    {
                        "element": "Pt",
                        "occu": 1
                    }
                ],
                "abc": [
                    0.0,
                    0.5,
                    0.5
                ],
                "xyz": [
                    1.765118605,
                    2.46161808,
                    1.56852471
                ],
                "label": "Pt",
                "properties": {}
            },
            {
                "species": [
                    {
                        "element": "O",
                        "occu": 1
                    }
                ],
                "abc": [
                    0.08468865,
                    0.339066,
                    0.0
                ],
                "xyz": [
                    1.4959544333405266,
                    1.2523597678049758,
                    0.0
                ],
                "label": "O",
                "properties": {}
            },
            {
                "species": [
                    {
                        "element": "O",
                        "occu": 1
                    }
                ],
                "abc": [
                    0.91531135,
                    0.660934,
                    0.0
                ],
                "xyz": [
                    5.564519986659474,
                    -1.2523597678049758,
                    0.0
                ],
                "label": "O",
                "properties": {}
            },
            {
                "species": [
                    {
                        "element": "O",
                        "occu": 1
                    }
                ],
                "abc": [
                    0.339066,
                    0.08468865,
                    0.0
                ],
                "xyz": [
                    1.4959544333405266,
                    -1.2523597678049758,
                    0.0
                ],
                "label": "O",
                "properties": {}
            },
            {
                "species": [
                    {
                        "element": "O",
                        "occu": 1
                    }
                ],
                "abc": [
                    0.660934,
                    0.91531135,
                    0.0
                ],
                "xyz": [
                    5.564519986659474,
                    1.2523597678049758,
                    0.0
                ],
                "label": "O",
                "properties": {}
            },
            {
                "species": [
                    {
                        "element": "O",
                        "occu": 1
                    }
                ],
                "abc": [
                    0.64876582,
                    0.35123418,
                    0.5
                ],
                "xyz": [
                    3.53023721,
                    -1.4648185287921025,
                    1.56852471
                ],
                "label": "O",
                "properties": {}
            },
            {
                "species": [
                    {
                        "element": "O",
                        "occu": 1
                    }
                ],
                "abc": [
                    0.35123418,
                    0.64876582,
                    0.5
                ],
                "xyz": [
                    3.53023721,
                    1.4648185287921025,
                    1.56852471
                ],
                "label": "O",
                "properties": {}
            }
        ]
    },
    "spacegroup": {
        "source": "spglib",
        "symbol": "Cmmm",
        "number": 65,
        "point_group": "mmm",
        "crystal_system": "orthorhombic",
        "hall": "-C 2 2"
    },
    "dielectric": {
        "epsilon_ionic": [
            [
                4.51450807,
                1e-08,
                1e-07
            ],
            [
                1e-08,
                4.60215819,
                3e-08
            ],
            [
                1e-07,
                3e-08,
                4.88357633
            ]
        ],
        "epsilon_ionic_avg": 4.666747529999999,
        "epsilon_ionic_eig": [
            4.514508069999971,
            4.8835763300000306,
            4.602158189999998
        ],
        "epsilon_electronic": [
            [
                8.8202318,
                0.0,
                0.0
            ],
            [
                0.0,
                8.59779242,
                0.0
            ],
            [
                0.0,
                0.0,
                12.21582488
            ]
        ],
        "epsilon_electronic_avg": 9.8779497,
        "epsilon_electronic_eig": [
            8.8202318,
            8.59779242,
            12.21582488
        ]
    },
    "phonon": {
        "lowest_freq": -0.10839893903151135,
        "frequency": [
            -0.10839893903151135,
            -0.06417917327953143,
            -0.014191372551199765,
            2.656155545985189,
            3.409097277561825,
            3.626667579703757,
            3.9941037830055848,
            4.441295102784126,
            4.885499163138007,
            6.104204431014584,
            6.360555710964463,
            7.31484639624974,
            8.593362014306194,
            9.294094257597003,
            11.106905178236648,
            11.51075265980826,
            12.948349137839656,
            14.460161274611632,
            15.779571241259003,
            15.987904863265943,
            17.04528368151349,
            17.42970034779084,
            18.863547273540576,
            18.993476170045405,
            19.263948925346906,
            19.557957415029264,
            21.78081394247963,
            21.882253693498935,
            22.486367187342708,
            22.675620996658292
        ]
    },
    "born_effective_charge": {
        "avg_abs_trace": 1.6715736666666667,
        "tensors": [
            [
                [
                    1.99708,
                    0.0,
                    0.0
                ],
                [
                    0.0,
                    3.19511,
                    0.0
                ],
                [
                    0.0,
                    -0.0,
                    2.10782
                ]
            ],
            [
                [
                    2.01029,
                    1.35417,
                    0.0
                ],
                [
                    0.86539,
                    1.31911,
                    0.0
                ],
                [
                    0.0,
                    -0.0,
                    4.80431
                ]
            ],
            [
                [
                    1.57201,
                    0.0,
                    0.0
                ],
                [
                    0.0,
                    0.97034,
                    0.0
                ],
                [
                    0.0,
                    -0.0,
                    -1.03618
                ]
            ],
            [
                [
                    2.01029,
                    -1.35417,
                    0.0
                ],
                [
                    -0.86539,
                    1.31911,
                    0.0
                ],
                [
                    0.0,
                    -0.0,
                    4.80431
                ]
            ],
            [
                [
                    -0.55727,
                    -0.46293,
                    0.0
                ],
                [
                    -0.4605,
                    -1.07214,
                    0.0
                ],
                [
                    5e-05,
                    -0.00127,
                    -2.28368
                ]
            ],
            [
                [
                    -0.55735,
                    -0.46279,
                    0.0
                ],
                [
                    -0.46078,
                    -1.07243,
                    0.0
                ],
                [
                    -5e-05,
                    0.00127,
                    -2.28368
                ]
            ],
            [
                [
                    -0.55727,
                    0.46293,
                    0.0
                ],
                [
                    0.46078,
                    -1.07243,
                    0.0
                ],
                [
                    5e-05,
                    0.00127,
                    -2.28368
                ]
            ],
            [
                [
                    -0.55735,
                    0.46279,
                    0.0
                ],
                [
                    0.4605,
                    -1.07214,
                    0.0
                ],
                [
                    -5e-05,
                    -0.00127,
                    -2.28368
                ]
            ],
            [
                [
                    -2.68021,
                    -0.00019,
                    0.0
                ],
                [
                    0.0,
                    -1.25744,
                    0.0
                ],
                [
                    0.0,
                    -0.00073,
                    -0.77278
                ]
            ],
            [
                [
                    -2.68021,
                    0.00019,
                    0.0
                ],
                [
                    0.0,
                    -1.25709,
                    0.0
                ],
                [
                    0.0,
                    0.00073,
                    -0.77278
                ]
            ]
        ]
    },
    "band_gap": 0.5974000000000004,
    "is_direct": false,
    "formula": "Zn(PtO2)3"
}