{
    "mp_id": "mp-8710",
    "nelements": 3,
    "nsites": 13,
    "elements": [
        "Ca",
        "O",
        "Pt"
    ],
    "structure": {
        "@module": "pymatgen.core.structure",
        "@class": "Structure",
        "charge": null,
        "lattice": {
            "matrix": [
                [
                    3.08674782,
                    1.78213515,
                    5.09084621
                ],
                [
                    -3.08674782,
                    1.78213515,
                    5.09084621
                ],
                [
                    0.0,
                    -3.5642693,
                    5.09084621
                ]
            ],
            "a": 6.214558144471064,
            "b": 6.214558144471064,
            "c": 6.214557971150792,
            "alpha": 59.56333717219106,
            "beta": 59.56333717219106,
            "gamma": 59.56333261835304,
            "volume": 168.0284932304358
        },
        "sites": [
            {
                "species": [
                    {
                        "element": "Ca",
                        "occu": 1
                    }
                ],
                "abc": [
                    0.85485392,
                    0.85485392,
                    0.85485392
                ],
                "xyz": [
                    0.0,
                    8.548539200958771e-07,
                    13.055789516206929
                ],
                "label": "Ca",
                "properties": {}
            },
            {
                "species": [
                    {
                        "element": "Ca",
                        "occu": 1
                    }
                ],
                "abc": [
                    0.14514608,
                    0.14514608,
                    0.14514608
                ],
                "xyz": [
                    0.0,
                    1.4514608004390084e-07,
                    2.2167491137930706
                ],
                "label": "Ca",
                "properties": {}
            },
            {
                "species": [
                    {
                        "element": "Pt",
                        "occu": 1
                    }
                ],
                "abc": [
                    0.5,
                    0.0,
                    0.5
                ],
                "xyz": [
                    1.54337391,
                    -0.8910670749999999,
                    5.09084621
                ],
                "label": "Pt",
                "properties": {}
            },
            {
                "species": [
                    {
                        "element": "Pt",
                        "occu": 1
                    }
                ],
                "abc": [
                    0.0,
                    0.5,
                    0.5
                ],
                "xyz": [
                    -1.54337391,
                    -0.8910670749999999,
                    5.09084621
                ],
                "label": "Pt",
                "properties": {}
            },
            {
                "species": [
                    {
                        "element": "Pt",
                        "occu": 1
                    }
                ],
                "abc": [
                    0.5,
                    0.5,
                    0.0
                ],
                "xyz": [
                    0.0,
                    1.78213515,
                    5.09084621
                ],
                "label": "Pt",
                "properties": {}
            },
            {
                "species": [
                    {
                        "element": "O",
                        "occu": 1
                    }
                ],
                "abc": [
                    0.60387794,
                    0.60387794,
                    0.60387794
                ],
                "xyz": [
                    0.0,
                    6.038779400974192e-07,
                    9.222749166454822
                ],
                "label": "O",
                "properties": {}
            },
            {
                "species": [
                    {
                        "element": "O",
                        "occu": 1
                    }
                ],
                "abc": [
                    0.39612206,
                    0.39612206,
                    0.39612206
                ],
                "xyz": [
                    0.0,
                    3.961220600423587e-07,
                    6.049789463545178
                ],
                "label": "O",
                "properties": {}
            },
            {
                "species": [
                    {
                        "element": "O",
                        "occu": 1
                    }
                ],
                "abc": [
                    0.11322793,
                    0.11322793,
                    0.56022917
                ],
                "xyz": [
                    0.0,
                    -1.593232683566002,
                    4.004892503439236
                ],
                "label": "O",
                "properties": {}
            },
            {
                "species": [
                    {
                        "element": "O",
                        "occu": 1
                    }
                ],
                "abc": [
                    0.11322793,
                    0.56022917,
                    0.11322793
                ],
                "xyz": [
                    -1.379780103107297,
                    0.7966167351255161,
                    4.004892503439236
                ],
                "label": "O",
                "properties": {}
            },
            {
                "species": [
                    {
                        "element": "O",
                        "occu": 1
                    }
                ],
                "abc": [
                    0.56022917,
                    0.11322793,
                    0.11322793
                ],
                "xyz": [
                    1.379780103107297,
                    0.7966167351255161,
                    4.004892503439236
                ],
                "label": "O",
                "properties": {}
            },
            {
                "species": [
                    {
                        "element": "O",
                        "occu": 1
                    }
                ],
                "abc": [
                    0.88677207,
                    0.43977083,
                    0.88677207
                ],
                "xyz": [
                    1.379780103107297,
                    -0.7966157351255156,
                    11.267646126560763
                ],
                "label": "O",
                "properties": {}
            },
            {
                "species": [
                    {
                        "element": "O",
                        "occu": 1
                    }
                ],
                "abc": [
                    0.88677207,
                    0.88677207,
                    0.43977083
                ],
                "xyz": [
                    0.0,
                    1.5932336835660024,
                    11.267646126560763
                ],
                "label": "O",
                "properties": {}
            },
            {
                "species": [
                    {
                        "element": "O",
                        "occu": 1
                    }
                ],
                "abc": [
                    0.43977083,
                    0.88677207,
                    0.88677207
                ],
                "xyz": [
                    -1.379780103107297,
                    -0.7966157351255156,
                    11.267646126560763
                ],
                "label": "O",
                "properties": {}
            }
        ]
    },
    "spacegroup": {
        "source": "spglib",
        "symbol": "R-3m",
        "number": 166,
        "point_group": "-3m",
        "crystal_system": "trigonal",
        "hall": "-R 3 2\""
    },
    "dielectric": {
        "epsilon_ionic": [
            [
                3.28417398,
                -0.0,
                -1e-08
            ],
            [
                -0.0,
                3.28417034,
                -1.36e-06
            ],
            [
                -1e-08,
                -1.36e-06,
                3.86601127
            ]
        ],
        "epsilon_ionic_avg": 3.47811853,
        "epsilon_ionic_eig": [
            3.8660112700031783,
            3.2841739800000016,
            3.2841703399968214
        ],
        "epsilon_electronic": [
            [
                5.95299834,
                0.0,
                0.0
            ],
            [
                -0.0,
                5.95299752,
                2.5e-07
            ],
            [
                -0.0,
                2.5e-07,
                3.88575984
            ]
        ],
        "epsilon_electronic_avg": 5.263918566666667,
        "epsilon_electronic_eig": [
            3.8857598399999698,
            5.9529975200000305,
            5.95299834
        ]
    },
    "phonon": {
        "lowest_freq": -0.015861452060865536,
        "frequency": [
            -0.015861452060865536,
            -0.015861450982275146,
            -0.0023078545840099014,
            3.9679179119968233,
            4.664004482392599,
            4.664004526933747,
            5.829949551617243,
            5.829949761224654,
            6.121109329161759,
            6.942666446092374,
            7.555899289980146,
            7.555899484053771,
            7.578015817237947,
            7.5780163171315875,
            8.146801222680036,
            8.146801657673073,
            8.971910557718765,
            11.632266418884447,
            11.632266996674122,
            11.68326418077151,
            13.095989661308627,
            14.07764177844032,
            15.213176763728622,
            15.567148045165345,
            15.567148641755344,
            16.07162814553027,
            16.071628905876775,
            16.432168566014482,
            16.432169607143567,
            16.544296809301095,
            16.89592473033806,
            16.8959258152156,
            17.400636801261953,
            17.81672827455287,
            17.816728548901928,
            17.862075061517015,
            17.862075471995855,
            18.03044092119929,
            18.637378195557698
        ]
    },
    "born_effective_charge": {
        "avg_abs_trace": 2.1108299999999995,
        "tensors": [
            [
                [
                    2.1135,
                    3e-05,
                    -3e-05
                ],
                [
                    -0.0,
                    2.11341,
                    -3e-05
                ],
                [
                    0.0,
                    0.0,
                    3.39585
                ]
            ],
            [
                [
                    2.1135,
                    -3e-05,
                    3e-05
                ],
                [
                    -0.0,
                    2.1136,
                    3e-05
                ],
                [
                    0.0,
                    0.0,
                    3.39565
                ]
            ],
            [
                [
                    4.40516,
                    -1.07153,
                    0.96232
                ],
                [
                    -1.07154,
                    3.16783,
                    -0.5556
                ],
                [
                    0.65663,
                    -0.3791,
                    1.06557
                ]
            ],
            [
                [
                    4.40516,
                    1.07153,
                    -0.96232
                ],
                [
                    1.07154,
                    3.16783,
                    -0.5556
                ],
                [
                    -0.65663,
                    -0.3791,
                    1.06557
                ]
            ],
            [
                [
                    2.5492,
                    0.0,
                    0.0
                ],
                [
                    -0.0,
                    5.02379,
                    1.11121
                ],
                [
                    0.0,
                    0.75821,
                    1.06557
                ]
            ],
            [
                [
                    -2.17483,
                    -0.00012,
                    -0.00015
                ],
                [
                    -0.0,
                    -2.17483,
                    8e-05
                ],
                [
                    0.0,
                    -0.0,
                    -0.44223
                ]
            ],
            [
                [
                    -2.17483,
                    0.00012,
                    0.00015
                ],
                [
                    -0.0,
                    -2.17481,
                    -8e-05
                ],
                [
                    0.0,
                    -0.0,
                    -0.44241
                ]
            ],
            [
                [
                    -2.54811,
                    -0.00022,
                    -0.00013
                ],
                [
                    -0.0,
                    -1.19749,
                    -0.4153
                ],
                [
                    0.0,
                    -0.54158,
                    -1.51729
                ]
            ],
            [
                [
                    -1.53515,
                    -0.58487,
                    -0.35958
                ],
                [
                    -0.58487,
                    -2.21036,
                    0.20769
                ],
                [
                    -0.46902,
                    0.27079,
                    -1.51729
                ]
            ],
            [
                [
                    -1.53516,
                    0.58479,
                    0.35969
                ],
                [
                    0.58487,
                    -2.21036,
                    0.20769
                ],
                [
                    0.46902,
                    0.27079,
                    -1.51729
                ]
            ],
            [
                [
                    -1.53516,
                    -0.58479,
                    -0.35969
                ],
                [
                    -0.58479,
                    -2.21055,
                    0.20757
                ],
                [
                    -0.46928,
                    0.27094,
                    -1.51723
                ]
            ],
            [
                [
                    -2.54811,
                    0.00022,
                    0.00013
                ],
                [
                    -0.0,
                    -1.19753,
                    -0.41523
                ],
                [
                    0.0,
                    -0.54188,
                    -1.51723
                ]
            ],
            [
                [
                    -1.53515,
                    0.58487,
                    0.35958
                ],
                [
                    0.58479,
                    -2.21055,
                    0.20757
                ],
                [
                    0.46928,
                    0.27094,
                    -1.51723
                ]
            ]
        ]
    },
    "band_gap": 1.6212999999999997,
    "is_direct": false,
    "formula": "Ca2Pt3O8"
}