{
    "mp_id": "mp-8065",
    "nelements": 3,
    "nsites": 21,
    "elements": [
        "K",
        "O",
        "Ti"
    ],
    "structure": {
        "@module": "pymatgen.core.structure",
        "@class": "Structure",
        "charge": null,
        "lattice": {
            "matrix": [
                [
                    7.86057675,
                    -1.94194327,
                    0.00331414
                ],
                [
                    7.86057675,
                    1.94194327,
                    0.00331414
                ],
                [
                    -1.49681552,
                    0.0,
                    9.05260644
                ]
            ],
            "a": 8.096901968658308,
            "b": 8.096901968658308,
            "c": 9.17551851714345,
            "alpha": 99.0888711587235,
            "beta": 99.0888711587235,
            "gamma": 27.75393645418452,
            "volume": 276.3916137012134
        },
        "sites": [
            {
                "species": [
                    {
                        "element": "K",
                        "occu": 1
                    }
                ],
                "abc": [
                    0.54633712,
                    0.54633712,
                    0.75777957
                ],
                "xyz": [
                    7.454793505152994,
                    0.0,
                    6.863501490888184
                ],
                "label": "K",
                "properties": {}
            },
            {
                "species": [
                    {
                        "element": "K",
                        "occu": 1
                    }
                ],
                "abc": [
                    0.45366288,
                    0.45366288,
                    0.24222043
                ],
                "xyz": [
                    6.769544474847007,
                    0.0,
                    2.1957332291118155
                ],
                "label": "K",
                "properties": {}
            },
            {
                "species": [
                    {
                        "element": "Ti",
                        "occu": 1
                    }
                ],
                "abc": [
                    0.76546943,
                    0.76546943,
                    0.22691075
                ],
                "xyz": [
                    11.694418876332666,
                    0.0,
                    2.0592074624687102
                ],
                "label": "Ti",
                "properties": {}
            },
            {
                "species": [
                    {
                        "element": "Ti",
                        "occu": 1
                    }
                ],
                "abc": [
                    0.23453057,
                    0.23453057,
                    0.77308925
                ],
                "xyz": [
                    2.529919103667335,
                    0.0,
                    7.000027257531289
                ],
                "label": "Ti",
                "properties": {}
            },
            {
                "species": [
                    {
                        "element": "Ti",
                        "occu": 1
                    }
                ],
                "abc": [
                    0.82773768,
                    0.82773768,
                    0.56408557
                ],
                "xyz": [
                    12.168659089229834,
                    0.0,
                    5.111931140802661
                ],
                "label": "Ti",
                "properties": {}
            },
            {
                "species": [
                    {
                        "element": "Ti",
                        "occu": 1
                    }
                ],
                "abc": [
                    0.17226232,
                    0.17226232,
                    0.43591443
                ],
                "xyz": [
                    2.0556788907701664,
                    0.0,
                    3.947303579197339
                ],
                "label": "Ti",
                "properties": {}
            },
            {
                "species": [
                    {
                        "element": "Ti",
                        "occu": 1
                    }
                ],
                "abc": [
                    0.88425725,
                    0.88425725,
                    0.90275698
                ],
                "xyz": [
                    12.550283302285546,
                    0.0,
                    8.178164755547982
                ],
                "label": "Ti",
                "properties": {}
            },
            {
                "species": [
                    {
                        "element": "Ti",
                        "occu": 1
                    }
                ],
                "abc": [
                    0.11574275,
                    0.11574275,
                    0.09724302
                ],
                "xyz": [
                    1.6740546777144547,
                    0.0,
                    0.8810699644520187
                ],
                "label": "Ti",
                "properties": {}
            },
            {
                "species": [
                    {
                        "element": "O",
                        "occu": 1
                    }
                ],
                "abc": [
                    0.83216182,
                    0.83216182,
                    0.08250464
                ],
                "xyz": [
                    12.959049483435358,
                    0.0,
                    0.7523978369421512
                ],
                "label": "O",
                "properties": {}
            },
            {
                "species": [
                    {
                        "element": "O",
                        "occu": 1
                    }
                ],
                "abc": [
                    0.16783818,
                    0.16783818,
                    0.91749536
                ],
                "xyz": [
                    1.265288496564643,
                    0.0,
                    8.30683688305785
                ],
                "label": "O",
                "properties": {}
            },
            {
                "species": [
                    {
                        "element": "O",
                        "occu": 1
                    }
                ],
                "abc": [
                    0.64171208,
                    0.64171208,
                    0.11496163
                ],
                "xyz": [
                    9.916377760495783,
                    0.0,
                    1.0449558394365195
                ],
                "label": "O",
                "properties": {}
            },
            {
                "species": [
                    {
                        "element": "O",
                        "occu": 1
                    }
                ],
                "abc": [
                    0.35828792,
                    0.35828792,
                    0.88503837
                ],
                "xyz": [
                    4.307960219504217,
                    0.0,
                    8.014278880563479
                ],
                "label": "O",
                "properties": {}
            },
            {
                "species": [
                    {
                        "element": "O",
                        "occu": 1
                    }
                ],
                "abc": [
                    0.86606275,
                    0.86606275,
                    0.38253807
                ],
                "xyz": [
                    13.042916513215278,
                    0.0,
                    3.468707102431741
                ],
                "label": "O",
                "properties": {}
            },
            {
                "species": [
                    {
                        "element": "O",
                        "occu": 1
                    }
                ],
                "abc": [
                    0.13393725,
                    0.13393725,
                    0.61746193
                ],
                "xyz": [
                    1.1814214667847214,
                    0.0,
                    5.5905276175682594
                ],
                "label": "O",
                "properties": {}
            },
            {
                "species": [
                    {
                        "element": "O",
                        "occu": 1
                    }
                ],
                "abc": [
                    0.70447121,
                    0.70447121,
                    0.42720418
                ],
                "xyz": [
                    10.43565418190786,
                    0.0,
                    3.8719807434947375
                ],
                "label": "O",
                "properties": {}
            },
            {
                "species": [
                    {
                        "element": "O",
                        "occu": 1
                    }
                ],
                "abc": [
                    0.29552879,
                    0.29552879,
                    0.57279582
                ],
                "xyz": [
                    3.7886837980921384,
                    0.0,
                    5.187253976505262
                ],
                "label": "O",
                "properties": {}
            },
            {
                "species": [
                    {
                        "element": "O",
                        "occu": 1
                    }
                ],
                "abc": [
                    0.0,
                    0.0,
                    0.0
                ],
                "xyz": [
                    0.0,
                    0.0,
                    0.0
                ],
                "label": "O",
                "properties": {}
            },
            {
                "species": [
                    {
                        "element": "O",
                        "occu": 1
                    }
                ],
                "abc": [
                    0.23755767,
                    0.23755767,
                    0.24307309
                ],
                "xyz": [
                    3.370845021565988,
                    0.0,
                    2.202019618677607
                ],
                "label": "O",
                "properties": {}
            },
            {
                "species": [
                    {
                        "element": "O",
                        "occu": 1
                    }
                ],
                "abc": [
                    0.76244233,
                    0.76244233,
                    0.75692691
                ],
                "xyz": [
                    10.85349295843401,
                    0.0,
                    6.857215101322393
                ],
                "label": "O",
                "properties": {}
            },
            {
                "species": [
                    {
                        "element": "O",
                        "occu": 1
                    }
                ],
                "abc": [
                    0.07585435,
                    0.07585435,
                    0.29204599
                ],
                "xyz": [
                    0.7553789096069602,
                    0.0,
                    2.644280193721193
                ],
                "label": "O",
                "properties": {}
            },
            {
                "species": [
                    {
                        "element": "O",
                        "occu": 1
                    }
                ],
                "abc": [
                    0.92414565,
                    0.92414565,
                    0.70795401
                ],
                "xyz": [
                    13.46895907039304,
                    0.0,
                    6.414954526278807
                ],
                "label": "O",
                "properties": {}
            }
        ]
    },
    "spacegroup": {
        "source": "spglib",
        "symbol": "C2/m",
        "number": 12,
        "point_group": "2/m",
        "crystal_system": "monoclinic",
        "hall": "-C 2y"
    },
    "dielectric": {
        "epsilon_ionic": [
            [
                10.08307876,
                -5e-08,
                0.11960836
            ],
            [
                -5e-08,
                15.1502536,
                -7e-08
            ],
            [
                0.11960836,
                -7e-08,
                24.47947514
            ]
        ],
        "epsilon_ionic_avg": 16.57093583333334,
        "epsilon_ionic_eig": [
            10.082085096583317,
            24.48046880341669,
            15.150253600000005
        ],
        "epsilon_electronic": [
            [
                4.5915214,
                0.0,
                0.0255278
            ],
            [
                0.0,
                5.03553254,
                0.0
            ],
            [
                0.02553302,
                0.0,
                5.9469056
            ]
        ],
        "epsilon_electronic_avg": 5.191319846666667,
        "epsilon_electronic_eig": [
            4.591040672300183,
            5.947386327699817,
            5.03553254
        ]
    },
    "phonon": {
        "lowest_freq": -0.06876551549838728,
        "frequency": [
            -0.06876551549838728,
            -0.04703027106885045,
            -0.02775293235856855,
            2.6728838019945442,
            2.7409831482259124,
            3.2654200663561985,
            3.6147301310651385,
            3.811627492676422,
            4.165139049688802,
            4.225375215511864,
            4.271292121011548,
            4.480862066617084,
            4.55444889233143,
            5.650196564716251,
            5.6949940223347815,
            5.856386669588838,
            5.983790591966547,
            6.429534419870431,
            6.535050640102953,
            6.681998223040147,
            7.0800086119247565,
            7.3175964659146455,
            7.433952248067971,
            7.817440676362043,
            8.032888837023327,
            8.111863097464132,
            8.136386396863648,
            8.25082152194996,
            8.378429328565371,
            8.386613147912756,
            8.669785648374754,
            8.761484137102366,
            9.14329912086669,
            9.753041119230415,
            9.78689863423304,
            10.904187296618263,
            10.954150250904835,
            11.40803503252686,
            11.708379424754414,
            12.193385639113572,
            12.510051911160382,
            13.024242242025057,
            13.212952534426702,
            13.257041091516836,
            13.893098234345807,
            14.090455292707022,
            14.496748317242837,
            14.559050141451943,
            14.960218905969118,
            15.029806011733191,
            15.411008732964453,
            17.13272809912054,
            17.476023452355253,
            18.47850404143532,
            18.80269562792996,
            19.120883461110346,
            19.422787162267348,
            19.982140851049333,
            20.905815867170055,
            21.94535196458997,
            22.007233273910096,
            24.9201098400789,
            27.27700499665956
        ]
    },
    "born_effective_charge": {
        "avg_abs_trace": 3.393880158730159,
        "tensors": [
            [
                [
                    1.60894,
                    0.0,
                    -0.00447
                ],
                [
                    0.0,
                    1.24329,
                    1e-05
                ],
                [
                    -0.04683,
                    0.0,
                    1.02905
                ]
            ],
            [
                [
                    1.60894,
                    0.0,
                    -0.0045
                ],
                [
                    -0.0,
                    1.24329,
                    -1e-05
                ],
                [
                    -0.04679,
                    0.0,
                    1.02908
                ]
            ],
            [
                [
                    4.26495,
                    0.0,
                    -1.00404
                ],
                [
                    0.00025,
                    5.0955,
                    -0.0003
                ],
                [
                    0.13336,
                    0.0,
                    6.09239
                ]
            ],
            [
                [
                    4.26458,
                    0.0,
                    -1.00371
                ],
                [
                    -0.00025,
                    5.0955,
                    0.0003
                ],
                [
                    0.13314,
                    0.0,
                    6.09218
                ]
            ],
            [
                [
                    2.64137,
                    0.0,
                    0.38758
                ],
                [
                    0.00047,
                    4.99018,
                    -0.00012
                ],
                [
                    0.68255,
                    0.0,
                    6.94412
                ]
            ],
            [
                [
                    2.6409,
                    0.0,
                    0.38785
                ],
                [
                    -0.00047,
                    4.99018,
                    0.00012
                ],
                [
                    0.68292,
                    0.0,
                    6.94426
                ]
            ],
            [
                [
                    6.24324,
                    0.0,
                    0.83154
                ],
                [
                    0.00087,
                    6.28322,
                    0.00046
                ],
                [
                    -0.55007,
                    0.0,
                    7.01788
                ]
            ],
            [
                [
                    6.24309,
                    0.0,
                    0.83129
                ],
                [
                    -0.00087,
                    6.28322,
                    -0.00046
                ],
                [
                    -0.55036,
                    0.0,
                    7.01787
                ]
            ],
            [
                [
                    -3.09743,
                    0.0,
                    2.42916
                ],
                [
                    0.00036,
                    -1.1595,
                    -0.0002
                ],
                [
                    2.78963,
                    0.0,
                    -4.49098
                ]
            ],
            [
                [
                    -3.09746,
                    0.0,
                    2.42927
                ],
                [
                    -0.00036,
                    -1.1595,
                    0.0002
                ],
                [
                    2.79036,
                    0.0,
                    -4.49096
                ]
            ],
            [
                [
                    -2.00348,
                    0.0,
                    -0.59109
                ],
                [
                    0.00158,
                    -5.15646,
                    0.00062
                ],
                [
                    -0.68491,
                    0.0,
                    -1.67141
                ]
            ],
            [
                [
                    -2.00326,
                    0.0,
                    -0.59084
                ],
                [
                    -0.00158,
                    -5.15646,
                    -0.00062
                ],
                [
                    -0.68478,
                    0.0,
                    -1.6714
                ]
            ],
            [
                [
                    -1.4767,
                    0.0,
                    0.21346
                ],
                [
                    -7e-05,
                    -1.0603,
                    -0.0
                ],
                [
                    -0.19142,
                    0.0,
                    -4.79078
                ]
            ],
            [
                [
                    -1.47584,
                    0.0,
                    0.21269
                ],
                [
                    7e-05,
                    -1.0603,
                    0.0
                ],
                [
                    -0.19217,
                    0.0,
                    -4.79039
                ]
            ],
            [
                [
                    -1.33685,
                    0.0,
                    0.0612
                ],
                [
                    0.00089,
                    -4.24186,
                    -9e-05
                ],
                [
                    -0.20624,
                    0.0,
                    -2.18259
                ]
            ],
            [
                [
                    -1.3368,
                    0.0,
                    0.06118
                ],
                [
                    -0.00089,
                    -4.24186,
                    9e-05
                ],
                [
                    -0.20635,
                    0.0,
                    -2.18261
                ]
            ],
            [
                [
                    -6.51116,
                    0.0,
                    -2.80459
                ],
                [
                    0.0,
                    -1.01846,
                    0.0
                ],
                [
                    -2.13775,
                    0.0,
                    -2.49327
                ]
            ],
            [
                [
                    -1.61257,
                    0.0,
                    -0.11795
                ],
                [
                    -0.00083,
                    -4.29741,
                    0.00043
                ],
                [
                    -0.0587,
                    0.0,
                    -2.19707
                ]
            ],
            [
                [
                    -1.61225,
                    0.0,
                    -0.11801
                ],
                [
                    0.00083,
                    -4.29741,
                    -0.00043
                ],
                [
                    -0.05833,
                    0.0,
                    -2.19688
                ]
            ],
            [
                [
                    -1.97624,
                    0.0,
                    -0.80287
                ],
                [
                    -0.0,
                    -1.18744,
                    -0.00028
                ],
                [
                    -0.79845,
                    0.0,
                    -4.5042
                ]
            ],
            [
                [
                    -1.97596,
                    0.0,
                    -0.80315
                ],
                [
                    0.0,
                    -1.18744,
                    0.00028
                ],
                [
                    -0.7988,
                    0.0,
                    -4.50429
                ]
            ]
        ]
    },
    "band_gap": 2.9766999999999997,
    "is_direct": false,
    "formula": "K2Ti6O13"
}