{
    "mp_id": "mp-9157",
    "nelements": 3,
    "nsites": 14,
    "elements": [
        "Al",
        "K",
        "O"
    ],
    "structure": {
        "@module": "pymatgen.core.structure",
        "@class": "Structure",
        "charge": null,
        "lattice": {
            "matrix": [
                [
                    3.50423632,
                    -5.53163063,
                    0.00051598
                ],
                [
                    3.50423632,
                    5.53163063,
                    0.00051598
                ],
                [
                    -1.43112353,
                    0.0,
                    6.32881776
                ]
            ],
            "a": 6.548176072724122,
            "b": 6.548176072724122,
            "c": 6.4886091573935225,
            "alpha": 96.77408357577657,
            "beta": 96.77408357577657,
            "gamma": 115.29224647981293,
            "volume": 245.36556062764546
        },
        "sites": [
            {
                "species": [
                    {
                        "element": "K",
                        "occu": 1
                    }
                ],
                "abc": [
                    0.62809675,
                    0.62809675,
                    0.35219736
                ],
                "xyz": [
                    3.8979609585480386,
                    0.0,
                    2.229641077715244
                ],
                "label": "K",
                "properties": {}
            },
            {
                "species": [
                    {
                        "element": "K",
                        "occu": 1
                    }
                ],
                "abc": [
                    0.37190325,
                    0.37190325,
                    0.64780264
                ],
                "xyz": [
                    1.6793881514519609,
                    0.0,
                    4.100208642284756
                ],
                "label": "K",
                "properties": {}
            },
            {
                "species": [
                    {
                        "element": "K",
                        "occu": 1
                    }
                ],
                "abc": [
                    0.19609081,
                    0.80390919,
                    0.5
                ],
                "xyz": [
                    2.788674555,
                    3.3622267682849802,
                    3.1649248599999997
                ],
                "label": "K",
                "properties": {}
            },
            {
                "species": [
                    {
                        "element": "K",
                        "occu": 1
                    }
                ],
                "abc": [
                    0.80390919,
                    0.19609081,
                    0.5
                ],
                "xyz": [
                    2.788674555,
                    -3.3622267682849802,
                    3.1649248599999997
                ],
                "label": "K",
                "properties": {}
            },
            {
                "species": [
                    {
                        "element": "K",
                        "occu": 1
                    }
                ],
                "abc": [
                    0.26491465,
                    0.73508535,
                    0.0
                ],
                "xyz": [
                    3.5042363199999995,
                    2.600810645448541,
                    0.00051598
                ],
                "label": "K",
                "properties": {}
            },
            {
                "species": [
                    {
                        "element": "K",
                        "occu": 1
                    }
                ],
                "abc": [
                    0.73508535,
                    0.26491465,
                    0.0
                ],
                "xyz": [
                    3.5042363199999995,
                    -2.600810645448541,
                    0.00051598
                ],
                "label": "K",
                "properties": {}
            },
            {
                "species": [
                    {
                        "element": "Al",
                        "occu": 1
                    }
                ],
                "abc": [
                    0.16208054,
                    0.16208054,
                    0.1458786
                ],
                "xyz": [
                    0.9271667330829676,
                    0.0,
                    0.9234063351179943
                ],
                "label": "Al",
                "properties": {}
            },
            {
                "species": [
                    {
                        "element": "Al",
                        "occu": 1
                    }
                ],
                "abc": [
                    0.83791946,
                    0.83791946,
                    0.8541214
                ],
                "xyz": [
                    4.650182376917032,
                    0.0,
                    5.406443384882006
                ],
                "label": "Al",
                "properties": {}
            },
            {
                "species": [
                    {
                        "element": "O",
                        "occu": 1
                    }
                ],
                "abc": [
                    0.41373582,
                    0.15145475,
                    0.26278825
                ],
                "xyz": [
                    1.60447887513298,
                    -1.4508420004811744,
                    1.6634305707496286
                ],
                "label": "O",
                "properties": {}
            },
            {
                "species": [
                    {
                        "element": "O",
                        "occu": 1
                    }
                ],
                "abc": [
                    0.84854525,
                    0.58626418,
                    0.73721175
                ],
                "xyz": [
                    3.9728702348670204,
                    -1.4508420004811744,
                    4.6664191492503715
                ],
                "label": "O",
                "properties": {}
            },
            {
                "species": [
                    {
                        "element": "O",
                        "occu": 1
                    }
                ],
                "abc": [
                    0.58626418,
                    0.84854525,
                    0.73721175
                ],
                "xyz": [
                    3.9728702348670204,
                    1.4508420004811744,
                    4.6664191492503715
                ],
                "label": "O",
                "properties": {}
            },
            {
                "species": [
                    {
                        "element": "O",
                        "occu": 1
                    }
                ],
                "abc": [
                    0.15145475,
                    0.41373582,
                    0.26278825
                ],
                "xyz": [
                    1.60447887513298,
                    1.4508420004811744,
                    1.6634305707496286
                ],
                "label": "O",
                "properties": {}
            },
            {
                "species": [
                    {
                        "element": "O",
                        "occu": 1
                    }
                ],
                "abc": [
                    0.09995887,
                    0.09995887,
                    0.85544224
                ],
                "xyz": [
                    -0.5236845126995904,
                    0.0,
                    5.414041194721667
                ],
                "label": "O",
                "properties": {}
            },
            {
                "species": [
                    {
                        "element": "O",
                        "occu": 1
                    }
                ],
                "abc": [
                    0.90004113,
                    0.90004113,
                    0.14455776
                ],
                "xyz": [
                    6.101033622699591,
                    0.0,
                    0.9158085252783323
                ],
                "label": "O",
                "properties": {}
            }
        ]
    },
    "spacegroup": {
        "source": "spglib",
        "symbol": "C2/m",
        "number": 12,
        "point_group": "2/m",
        "crystal_system": "monoclinic",
        "hall": "-C 2y"
    },
    "dielectric": {
        "epsilon_ionic": [
            [
                4.36315167,
                0.0,
                0.00595996
            ],
            [
                0.0,
                6.84148519,
                -0.0
            ],
            [
                0.00595996,
                -0.0,
                4.85230782
            ]
        ],
        "epsilon_ionic_avg": 5.352314893333333,
        "epsilon_ionic_eig": [
            4.363079063631835,
            4.852380426368165,
            6.84148519
        ],
        "epsilon_electronic": [
            [
                2.77216366,
                0.0,
                0.04424201
            ],
            [
                0.0,
                2.77310735,
                0.0
            ],
            [
                0.04424104,
                0.0,
                2.77195839
            ]
        ],
        "epsilon_electronic_avg": 2.7724098,
        "epsilon_electronic_eig": [
            2.8163026690475896,
            2.7278193809524103,
            2.77310735
        ]
    },
    "phonon": {
        "lowest_freq": -0.04796659770198749,
        "frequency": [
            -0.04796659770198749,
            -0.03622680053558407,
            -0.031982517837251055,
            2.0668015999602076,
            2.4795516404437308,
            2.679438614103805,
            2.9705901395004144,
            3.162854669045224,
            3.3120989888504515,
            3.4443052229894615,
            3.742494323145771,
            3.7812197967604706,
            3.819860093190744,
            3.877489708217056,
            4.012793679192959,
            4.729930663213012,
            4.867260665558367,
            5.12143387296683,
            5.30788340211289,
            5.325412033547537,
            5.548563740635833,
            5.983536722580855,
            6.267968463731918,
            6.722313842993863,
            6.978702090465063,
            7.028094700406778,
            7.755006617200506,
            9.31120767706926,
            9.471469026300946,
            9.878986682600198,
            10.249281079868931,
            11.452602804377399,
            12.403791364802238,
            13.946380628737987,
            15.315173061276491,
            17.839543965772037,
            18.528488095687333,
            19.189276615920633,
            20.1835643999182,
            21.508810950424515,
            21.740241415849077,
            22.121003781745625
        ]
    },
    "born_effective_charge": {
        "avg_abs_trace": 1.5440854761904765,
        "tensors": [
            [
                [
                    1.23622,
                    -0.0,
                    -0.04411
                ],
                [
                    -4e-05,
                    0.9981,
                    -1e-05
                ],
                [
                    -0.02915,
                    -0.0,
                    1.13355
                ]
            ],
            [
                [
                    1.23629,
                    -0.0,
                    -0.04418
                ],
                [
                    4e-05,
                    0.9981,
                    1e-05
                ],
                [
                    -0.02916,
                    -0.0,
                    1.13359
                ]
            ],
            [
                [
                    1.09151,
                    -0.0,
                    -0.02343
                ],
                [
                    -0.0,
                    1.17198,
                    0.0
                ],
                [
                    -0.03258,
                    2e-05,
                    1.18978
                ]
            ],
            [
                [
                    1.09151,
                    0.0,
                    -0.02343
                ],
                [
                    -0.0,
                    1.17196,
                    0.0
                ],
                [
                    -0.03258,
                    -2e-05,
                    1.18978
                ]
            ],
            [
                [
                    1.14975,
                    -3e-05,
                    -0.02355
                ],
                [
                    -0.0,
                    1.13988,
                    0.0
                ],
                [
                    -0.01262,
                    3e-05,
                    1.03256
                ]
            ],
            [
                [
                    1.14975,
                    3e-05,
                    -0.02355
                ],
                [
                    -0.0,
                    1.13987,
                    0.0
                ],
                [
                    -0.01262,
                    -3e-05,
                    1.03256
                ]
            ],
            [
                [
                    1.96363,
                    -0.0,
                    0.51976
                ],
                [
                    1e-05,
                    2.05454,
                    -2e-05
                ],
                [
                    0.54174,
                    -0.0,
                    2.05139
                ]
            ],
            [
                [
                    1.96364,
                    -0.0,
                    0.5198
                ],
                [
                    -1e-05,
                    2.05454,
                    2e-05
                ],
                [
                    0.54175,
                    -0.0,
                    2.05131
                ]
            ],
            [
                [
                    -1.71336,
                    0.16699,
                    -0.22372
                ],
                [
                    0.18391,
                    -1.99777,
                    0.15959
                ],
                [
                    -0.21368,
                    0.15246,
                    -1.69855
                ]
            ],
            [
                [
                    -1.71336,
                    -0.16701,
                    -0.22369
                ],
                [
                    -0.18391,
                    -1.99777,
                    -0.15959
                ],
                [
                    -0.21367,
                    -0.15243,
                    -1.69847
                ]
            ],
            [
                [
                    -1.71336,
                    0.16701,
                    -0.22369
                ],
                [
                    0.18395,
                    -1.99782,
                    0.15954
                ],
                [
                    -0.21367,
                    0.15243,
                    -1.69847
                ]
            ],
            [
                [
                    -1.71336,
                    -0.16699,
                    -0.22372
                ],
                [
                    -0.18395,
                    -1.99782,
                    -0.15954
                ],
                [
                    -0.21368,
                    -0.15246,
                    -1.69855
                ]
            ],
            [
                [
                    -2.0144,
                    -0.0,
                    0.01878
                ],
                [
                    -2e-05,
                    -1.36889,
                    2e-05
                ],
                [
                    -0.04011,
                    -0.0,
                    -2.01028
                ]
            ],
            [
                [
                    -2.01447,
                    -0.0,
                    0.01873
                ],
                [
                    2e-05,
                    -1.36889,
                    -2e-05
                ],
                [
                    -0.03996,
                    -0.0,
                    -2.01021
                ]
            ]
        ]
    },
    "band_gap": 2.9303,
    "is_direct": false,
    "formula": "K3AlO3"
}