{
    "mp_id": "mp-9172",
    "nelements": 3,
    "nsites": 18,
    "elements": [
        "Li",
        "O",
        "Ti"
    ],
    "structure": {
        "@module": "pymatgen.core.structure",
        "@class": "Structure",
        "charge": null,
        "lattice": {
            "matrix": [
                [
                    3.98659294,
                    -3.69424029,
                    0.0
                ],
                [
                    3.98659294,
                    3.69424029,
                    0.0
                ],
                [
                    0.0,
                    0.0,
                    6.17293268
                ]
            ],
            "a": 5.4351020771938705,
            "b": 5.4351020771938705,
            "c": 6.17293268,
            "alpha": 90.0,
            "beta": 90.0,
            "gamma": 85.64044933849608,
            "volume": 181.82289576538832
        },
        "sites": [
            {
                "species": [
                    {
                        "element": "Li",
                        "occu": 1
                    }
                ],
                "abc": [
                    0.15841191,
                    0.15841191,
                    0.0
                ],
                "xyz": [
                    1.2630476040358307,
                    0.0,
                    0.0
                ],
                "label": "Li",
                "properties": {}
            },
            {
                "species": [
                    {
                        "element": "Li",
                        "occu": 1
                    }
                ],
                "abc": [
                    0.84158809,
                    0.84158809,
                    0.5
                ],
                "xyz": [
                    6.7101382759641695,
                    0.0,
                    3.08646634
                ],
                "label": "Li",
                "properties": {}
            },
            {
                "species": [
                    {
                        "element": "Li",
                        "occu": 1
                    }
                ],
                "abc": [
                    0.84158809,
                    0.84158809,
                    0.0
                ],
                "xyz": [
                    6.7101382759641695,
                    0.0,
                    0.0
                ],
                "label": "Li",
                "properties": {}
            },
            {
                "species": [
                    {
                        "element": "Li",
                        "occu": 1
                    }
                ],
                "abc": [
                    0.15841191,
                    0.15841191,
                    0.5
                ],
                "xyz": [
                    1.2630476040358307,
                    0.0,
                    3.08646634
                ],
                "label": "Li",
                "properties": {}
            },
            {
                "species": [
                    {
                        "element": "Li",
                        "occu": 1
                    }
                ],
                "abc": [
                    0.1217741,
                    0.58586646,
                    0.25
                ],
                "xyz": [
                    2.8210748605536464,
                    1.7144686945931844,
                    1.54323317
                ],
                "label": "Li",
                "properties": {}
            },
            {
                "species": [
                    {
                        "element": "Li",
                        "occu": 1
                    }
                ],
                "abc": [
                    0.8782259,
                    0.41413354,
                    0.75
                ],
                "xyz": [
                    5.1521110194463535,
                    -1.7144686945931844,
                    4.62969951
                ],
                "label": "Li",
                "properties": {}
            },
            {
                "species": [
                    {
                        "element": "Li",
                        "occu": 1
                    }
                ],
                "abc": [
                    0.41413354,
                    0.8782259,
                    0.25
                ],
                "xyz": [
                    5.1521110194463535,
                    1.7144686945931844,
                    1.54323317
                ],
                "label": "Li",
                "properties": {}
            },
            {
                "species": [
                    {
                        "element": "Li",
                        "occu": 1
                    }
                ],
                "abc": [
                    0.58586646,
                    0.1217741,
                    0.75
                ],
                "xyz": [
                    2.8210748605536464,
                    -1.7144686945931844,
                    4.62969951
                ],
                "label": "Li",
                "properties": {}
            },
            {
                "species": [
                    {
                        "element": "Ti",
                        "occu": 1
                    }
                ],
                "abc": [
                    0.6574226,
                    0.3425774,
                    0.25
                ],
                "xyz": [
                    3.9865929399999995,
                    -1.1631138229531082,
                    1.54323317
                ],
                "label": "Ti",
                "properties": {}
            },
            {
                "species": [
                    {
                        "element": "Ti",
                        "occu": 1
                    }
                ],
                "abc": [
                    0.3425774,
                    0.6574226,
                    0.75
                ],
                "xyz": [
                    3.9865929399999995,
                    1.1631138229531082,
                    4.62969951
                ],
                "label": "Ti",
                "properties": {}
            },
            {
                "species": [
                    {
                        "element": "O",
                        "occu": 1
                    }
                ],
                "abc": [
                    0.32756063,
                    0.26924033,
                    0.25
                ],
                "xyz": [
                    2.3792024937212224,
                    -0.21544920198488704,
                    1.54323317
                ],
                "label": "O",
                "properties": {}
            },
            {
                "species": [
                    {
                        "element": "O",
                        "occu": 1
                    }
                ],
                "abc": [
                    0.67243937,
                    0.73075967,
                    0.75
                ],
                "xyz": [
                    5.593983386278778,
                    0.21544920198488704,
                    4.62969951
                ],
                "label": "O",
                "properties": {}
            },
            {
                "species": [
                    {
                        "element": "O",
                        "occu": 1
                    }
                ],
                "abc": [
                    0.79742375,
                    0.20257625,
                    0.99800547
                ],
                "xyz": [
                    3.98659294,
                    -2.197509600905775,
                    6.160620580581759
                ],
                "label": "O",
                "properties": {}
            },
            {
                "species": [
                    {
                        "element": "O",
                        "occu": 1
                    }
                ],
                "abc": [
                    0.20257625,
                    0.79742375,
                    0.49800547
                ],
                "xyz": [
                    3.98659294,
                    2.197509600905775,
                    3.0741542405817595
                ],
                "label": "O",
                "properties": {}
            },
            {
                "species": [
                    {
                        "element": "O",
                        "occu": 1
                    }
                ],
                "abc": [
                    0.79742375,
                    0.20257625,
                    0.50199453
                ],
                "xyz": [
                    3.98659294,
                    -2.197509600905775,
                    3.0987784394182407
                ],
                "label": "O",
                "properties": {}
            },
            {
                "species": [
                    {
                        "element": "O",
                        "occu": 1
                    }
                ],
                "abc": [
                    0.20257625,
                    0.79742375,
                    0.00199453
                ],
                "xyz": [
                    3.98659294,
                    2.197509600905775,
                    0.012312099418240399
                ],
                "label": "O",
                "properties": {}
            },
            {
                "species": [
                    {
                        "element": "O",
                        "occu": 1
                    }
                ],
                "abc": [
                    0.73075967,
                    0.67243937,
                    0.25
                ],
                "xyz": [
                    5.593983386278778,
                    -0.21544920198488704,
                    1.54323317
                ],
                "label": "O",
                "properties": {}
            },
            {
                "species": [
                    {
                        "element": "O",
                        "occu": 1
                    }
                ],
                "abc": [
                    0.26924033,
                    0.32756063,
                    0.75
                ],
                "xyz": [
                    2.3792024937212224,
                    0.21544920198488704,
                    4.62969951
                ],
                "label": "O",
                "properties": {}
            }
        ]
    },
    "spacegroup": {
        "source": "spglib",
        "symbol": "Cmcm",
        "number": 63,
        "point_group": "mmm",
        "crystal_system": "orthorhombic",
        "hall": "-C 2c 2"
    },
    "dielectric": {
        "epsilon_ionic": [
            [
                5.09928348,
                3e-08,
                -8e-08
            ],
            [
                3e-08,
                4.31478846,
                -4e-08
            ],
            [
                -8e-08,
                -4e-08,
                4.41799699
            ]
        ],
        "epsilon_ionic_avg": 4.610689643333333,
        "epsilon_ionic_eig": [
            5.099283480000011,
            4.417996990000004,
            4.314788459999983
        ],
        "epsilon_electronic": [
            [
                3.39902554,
                0.0,
                0.0
            ],
            [
                0.0,
                3.16220017,
                0.0
            ],
            [
                0.0,
                0.0,
                3.37157355
            ]
        ],
        "epsilon_electronic_avg": 3.3109330866666666,
        "epsilon_electronic_eig": [
            3.39902554,
            3.16220017,
            3.37157355
        ]
    },
    "phonon": {
        "lowest_freq": -0.07557697669484945,
        "frequency": [
            -0.07557697669484945,
            -0.05108150149839027,
            -0.04880902372357073,
            3.4988151452955565,
            4.147881352851928,
            5.545996699618909,
            5.945787896883019,
            5.978106268271225,
            7.1555041918543685,
            7.350877396752011,
            7.735381004640097,
            8.094839072127176,
            8.177780171599432,
            8.18275026657481,
            8.616360905588836,
            8.744775183491113,
            9.193402695611663,
            9.410520541698746,
            9.945983841974833,
            10.21369173698444,
            10.503075363203523,
            10.810260853031345,
            10.997951167996945,
            11.096206708033433,
            11.110498642998508,
            11.32852869418138,
            11.622881439941905,
            12.213598175239833,
            12.231953795314624,
            12.492856980144351,
            12.73721883093949,
            13.341500365588216,
            13.483037240154719,
            13.537234865691033,
            13.768615278448651,
            13.906053928776949,
            13.93944000949686,
            14.517370687780659,
            14.521362284701897,
            15.238966771010782,
            15.618186810522905,
            15.654885445583501,
            16.13620670401383,
            16.29576369248519,
            16.32744717820681,
            16.615374687850256,
            19.99726038606841,
            20.051929986651746,
            20.822697123545684,
            21.341637534759137,
            21.565086662765484,
            21.92794972310848,
            22.024086386484502,
            22.148757617182483
        ]
    },
    "born_effective_charge": {
        "avg_abs_trace": 1.6597444444444445,
        "tensors": [
            [
                [
                    1.2016,
                    0.0,
                    -0.0
                ],
                [
                    -0.0,
                    1.10135,
                    -0.20514
                ],
                [
                    -3e-05,
                    0.17636,
                    0.90711
                ]
            ],
            [
                [
                    1.20162,
                    0.0,
                    -0.0
                ],
                [
                    0.0,
                    1.10135,
                    0.20514
                ],
                [
                    3e-05,
                    -0.17636,
                    0.90711
                ]
            ],
            [
                [
                    1.20162,
                    0.0,
                    -0.0
                ],
                [
                    0.0,
                    1.10135,
                    -0.20514
                ],
                [
                    3e-05,
                    0.17636,
                    0.90711
                ]
            ],
            [
                [
                    1.2016,
                    0.0,
                    -0.0
                ],
                [
                    -0.0,
                    1.10135,
                    0.20514
                ],
                [
                    -3e-05,
                    -0.17636,
                    0.90711
                ]
            ],
            [
                [
                    1.02658,
                    -0.32068,
                    -0.0
                ],
                [
                    -0.15189,
                    0.98175,
                    -0.0
                ],
                [
                    -1e-05,
                    -0.0,
                    1.19253
                ]
            ],
            [
                [
                    1.02659,
                    -0.32069,
                    -0.0
                ],
                [
                    -0.1519,
                    0.98173,
                    -0.0
                ],
                [
                    1e-05,
                    0.0,
                    1.19253
                ]
            ],
            [
                [
                    1.02659,
                    0.32069,
                    -0.0
                ],
                [
                    0.15189,
                    0.98175,
                    -0.0
                ],
                [
                    1e-05,
                    -0.0,
                    1.19253
                ]
            ],
            [
                [
                    1.02658,
                    0.32068,
                    -0.0
                ],
                [
                    0.1519,
                    0.98173,
                    -0.0
                ],
                [
                    -1e-05,
                    0.0,
                    1.19253
                ]
            ],
            [
                [
                    3.20253,
                    -0.0003,
                    -0.0
                ],
                [
                    0.0,
                    2.84486,
                    -0.0
                ],
                [
                    0.0,
                    0.0005,
                    3.53715
                ]
            ],
            [
                [
                    3.20253,
                    0.0003,
                    -0.0
                ],
                [
                    0.0,
                    2.84522,
                    -0.0
                ],
                [
                    0.0,
                    -0.0005,
                    3.53715
                ]
            ],
            [
                [
                    -2.43083,
                    0.69452,
                    -0.0
                ],
                [
                    0.60743,
                    -1.71744,
                    -0.0
                ],
                [
                    -0.00012,
                    0.00026,
                    -1.3218
                ]
            ],
            [
                [
                    -2.43087,
                    0.69449,
                    -0.0
                ],
                [
                    0.60761,
                    -1.71754,
                    -0.0
                ],
                [
                    0.00012,
                    -0.00026,
                    -1.3218
                ]
            ],
            [
                [
                    -1.3986,
                    0.0,
                    -0.00023
                ],
                [
                    0.0,
                    -1.78825,
                    -0.4924
                ],
                [
                    0.0,
                    -0.78916,
                    -2.54626
                ]
            ],
            [
                [
                    -1.3986,
                    -0.0,
                    -0.00023
                ],
                [
                    0.0,
                    -1.78798,
                    0.49208
                ],
                [
                    0.0,
                    0.78916,
                    -2.54626
                ]
            ],
            [
                [
                    -1.3986,
                    0.0,
                    0.00023
                ],
                [
                    0.0,
                    -1.78825,
                    0.4924
                ],
                [
                    0.0,
                    0.78881,
                    -2.54656
                ]
            ],
            [
                [
                    -1.3986,
                    -0.0,
                    0.00023
                ],
                [
                    0.0,
                    -1.78798,
                    -0.49208
                ],
                [
                    0.0,
                    -0.78881,
                    -2.54656
                ]
            ],
            [
                [
                    -2.43087,
                    -0.69449,
                    -0.0
                ],
                [
                    -0.60743,
                    -1.71744,
                    -0.0
                ],
                [
                    0.00012,
                    0.00026,
                    -1.3218
                ]
            ],
            [
                [
                    -2.43083,
                    -0.69452,
                    -0.0
                ],
                [
                    -0.60761,
                    -1.71754,
                    -0.0
                ],
                [
                    -0.00012,
                    -0.00026,
                    -1.3218
                ]
            ]
        ]
    },
    "band_gap": 4.5164,
    "is_direct": false,
    "formula": "Li4TiO4"
}