{
    "mp_id": "mp-9751",
    "nelements": 3,
    "nsites": 22,
    "elements": [
        "Al",
        "Ge",
        "O"
    ],
    "structure": {
        "@module": "pymatgen.core.structure",
        "@class": "Structure",
        "charge": null,
        "lattice": {
            "matrix": [
                [
                    3.60996606,
                    -3.88799475,
                    9.802e-05
                ],
                [
                    3.60996606,
                    3.88799475,
                    9.802e-05
                ],
                [
                    -3.41478277,
                    0.0,
                    9.17784291
                ]
            ],
            "a": 5.305502628402648,
            "b": 5.305502628402648,
            "c": 9.792524794297238,
            "alpha": 103.72451758685297,
            "beta": 103.72451758685297,
            "gamma": 94.24717488835329,
            "volume": 257.6343650303201
        },
        "sites": [
            {
                "species": [
                    {
                        "element": "Al",
                        "occu": 1
                    }
                ],
                "abc": [
                    0.74712374,
                    0.59318985,
                    0.97876811
                ],
                "xyz": [
                    1.4962060918032907,
                    -0.5984941561670776,
                    8.983111336435691
                ],
                "label": "Al",
                "properties": {}
            },
            {
                "species": [
                    {
                        "element": "Al",
                        "occu": 1
                    }
                ],
                "abc": [
                    0.40681015,
                    0.25287626,
                    0.52123189
                ],
                "xyz": [
                    0.6015518731967091,
                    -0.5984941561670774,
                    4.783849068564309
                ],
                "label": "Al",
                "properties": {}
            },
            {
                "species": [
                    {
                        "element": "Al",
                        "occu": 1
                    }
                ],
                "abc": [
                    0.25287626,
                    0.40681015,
                    0.02123189
                ],
                "xyz": [
                    2.308943258196709,
                    0.5984941561670774,
                    0.1949276135643081
                ],
                "label": "Al",
                "properties": {}
            },
            {
                "species": [
                    {
                        "element": "Al",
                        "occu": 1
                    }
                ],
                "abc": [
                    0.59318985,
                    0.74712374,
                    0.47876811
                ],
                "xyz": [
                    3.2035974768032904,
                    0.5984941561670776,
                    4.394189881435692
                ],
                "label": "Al",
                "properties": {}
            },
            {
                "species": [
                    {
                        "element": "Ge",
                        "occu": 1
                    }
                ],
                "abc": [
                    0.00787308,
                    0.51132527,
                    0.70605085
                ],
                "xyz": [
                    -0.5367218554158533,
                    1.9574194715960025,
                    6.4800746795942405
                ],
                "label": "Ge",
                "properties": {}
            },
            {
                "species": [
                    {
                        "element": "Ge",
                        "occu": 1
                    }
                ],
                "abc": [
                    0.48867473,
                    0.99212692,
                    0.79394915
                ],
                "xyz": [
                    2.6344798204158537,
                    1.9574194715960025,
                    7.28688572540576
                ],
                "label": "Ge",
                "properties": {}
            },
            {
                "species": [
                    {
                        "element": "Ge",
                        "occu": 1
                    }
                ],
                "abc": [
                    0.99212692,
                    0.48867473,
                    0.29394915
                ],
                "xyz": [
                    4.3418712054158535,
                    -1.9574194715960025,
                    2.69796427040576
                ],
                "label": "Ge",
                "properties": {}
            },
            {
                "species": [
                    {
                        "element": "Ge",
                        "occu": 1
                    }
                ],
                "abc": [
                    0.51132527,
                    0.00787308,
                    0.20605085
                ],
                "xyz": [
                    1.170669529584147,
                    -1.9574194715960025,
                    1.8911532245942408
                ],
                "label": "Ge",
                "properties": {}
            },
            {
                "species": [
                    {
                        "element": "O",
                        "occu": 1
                    }
                ],
                "abc": [
                    0.98153038,
                    0.43617684,
                    0.87258187
                ],
                "xyz": [
                    2.1381974121265737,
                    -2.120331700413915,
                    8.008558292635747
                ],
                "label": "O",
                "properties": {}
            },
            {
                "species": [
                    {
                        "element": "O",
                        "occu": 1
                    }
                ],
                "abc": [
                    0.56382316,
                    0.01846962,
                    0.62741813
                ],
                "xyz": [
                    -0.040439447126573214,
                    -2.120331700413915,
                    5.758402112364255
                ],
                "label": "O",
                "properties": {}
            },
            {
                "species": [
                    {
                        "element": "O",
                        "occu": 1
                    }
                ],
                "abc": [
                    0.01846962,
                    0.56382316,
                    0.12741813
                ],
                "xyz": [
                    1.6669519378734268,
                    2.120331700413915,
                    1.169480657364254
                ],
                "label": "O",
                "properties": {}
            },
            {
                "species": [
                    {
                        "element": "O",
                        "occu": 1
                    }
                ],
                "abc": [
                    0.43617684,
                    0.98153038,
                    0.37258187
                ],
                "xyz": [
                    3.8455887971265734,
                    2.120331700413915,
                    3.419636837635746
                ],
                "label": "O",
                "properties": {}
            },
            {
                "species": [
                    {
                        "element": "O",
                        "occu": 1
                    }
                ],
                "abc": [
                    0.68108285,
                    0.51899506,
                    0.60208571
                ],
                "xyz": [
                    2.276248615884518,
                    -0.6301964765591026,
                    5.5259656963725545
                ],
                "label": "O",
                "properties": {}
            },
            {
                "species": [
                    {
                        "element": "O",
                        "occu": 1
                    }
                ],
                "abc": [
                    0.48100494,
                    0.31891715,
                    0.89791429
                ],
                "xyz": [
                    -0.17849065088451788,
                    -0.6301964765591026,
                    8.240994708627447
                ],
                "label": "O",
                "properties": {}
            },
            {
                "species": [
                    {
                        "element": "O",
                        "occu": 1
                    }
                ],
                "abc": [
                    0.31891715,
                    0.48100494,
                    0.39791429
                ],
                "xyz": [
                    1.5289007341154819,
                    0.6301964765591026,
                    3.652073253627446
                ],
                "label": "O",
                "properties": {}
            },
            {
                "species": [
                    {
                        "element": "O",
                        "occu": 1
                    }
                ],
                "abc": [
                    0.51899506,
                    0.68108285,
                    0.10208571
                ],
                "xyz": [
                    3.9836400008845176,
                    0.6301964765591026,
                    0.9370442413725543
                ],
                "label": "O",
                "properties": {}
            },
            {
                "species": [
                    {
                        "element": "O",
                        "occu": 1
                    }
                ],
                "abc": [
                    0.84031318,
                    0.15968682,
                    0.25
                ],
                "xyz": [
                    2.7562703675,
                    -2.6462717143916095,
                    2.2945587475
                ],
                "label": "O",
                "properties": {}
            },
            {
                "species": [
                    {
                        "element": "O",
                        "occu": 1
                    }
                ],
                "abc": [
                    0.15968682,
                    0.84031318,
                    0.75
                ],
                "xyz": [
                    1.0488789825000002,
                    2.6462717143916095,
                    6.8834802025
                ],
                "label": "O",
                "properties": {}
            },
            {
                "species": [
                    {
                        "element": "O",
                        "occu": 1
                    }
                ],
                "abc": [
                    0.27770308,
                    0.14542393,
                    0.10133325
                ],
                "xyz": [
                    1.1814431090411779,
                    -0.5143006407344624,
                    0.9300621249692778
                ],
                "label": "O",
                "properties": {}
            },
            {
                "species": [
                    {
                        "element": "O",
                        "occu": 1
                    }
                ],
                "abc": [
                    0.85457607,
                    0.72229692,
                    0.39866675
                ],
                "xyz": [
                    4.331097625958822,
                    -0.5143006407344624,
                    3.659055370030723
                ],
                "label": "O",
                "properties": {}
            },
            {
                "species": [
                    {
                        "element": "O",
                        "occu": 1
                    }
                ],
                "abc": [
                    0.72229692,
                    0.85457607,
                    0.89866675
                ],
                "xyz": [
                    2.623706240958822,
                    0.5143006407344624,
                    8.247976825030722
                ],
                "label": "O",
                "properties": {}
            },
            {
                "species": [
                    {
                        "element": "O",
                        "occu": 1
                    }
                ],
                "abc": [
                    0.14542393,
                    0.27770308,
                    0.60133325
                ],
                "xyz": [
                    -0.5259482759588221,
                    0.5143006407344624,
                    5.518983579969278
                ],
                "label": "O",
                "properties": {}
            }
        ]
    },
    "spacegroup": {
        "source": "spglib",
        "symbol": "C2/c",
        "number": 15,
        "point_group": "2/m",
        "crystal_system": "monoclinic",
        "hall": "-C 2yc"
    },
    "dielectric": {
        "epsilon_ionic": [
            [
                3.3838583,
                0.0,
                -0.7044124
            ],
            [
                0.0,
                4.49576886,
                2e-08
            ],
            [
                -0.7044124,
                2e-08,
                6.72042505
            ]
        ],
        "epsilon_ionic_avg": 4.866684070000001,
        "epsilon_ionic_eig": [
            3.2412396211673946,
            6.863043728832606,
            4.49576886
        ],
        "epsilon_electronic": [
            [
                3.15925371,
                0.0,
                -0.02244336
            ],
            [
                0.0,
                3.1987774,
                0.0
            ],
            [
                -0.02244312,
                0.0,
                3.2553897
            ]
        ],
        "epsilon_electronic_avg": 3.2044736033333336,
        "epsilon_electronic_eig": [
            3.154272377341648,
            3.260371032658352,
            3.1987774
        ]
    },
    "phonon": {
        "lowest_freq": -0.04681311227046367,
        "frequency": [
            -0.04681311227046367,
            -0.04411924625646941,
            -0.03150928446469348,
            2.773745646402156,
            2.919246953117113,
            3.3178217987328544,
            3.426769620981441,
            3.4784574377227324,
            3.6062058724053387,
            4.451756033328848,
            4.630427236430809,
            4.7831805517339285,
            5.996313358354528,
            6.114666563236302,
            6.270581820338389,
            6.309136551634089,
            6.482404935468873,
            7.301676968095616,
            7.383838297203055,
            7.509933874325065,
            7.8514782773203216,
            8.234359081430561,
            8.711209155882226,
            9.00178540979788,
            9.266901579993652,
            9.327406814537062,
            9.47841351529585,
            9.52274155696095,
            10.058717416466758,
            10.503774049865378,
            10.588800927027744,
            10.843163995905522,
            11.277039871180708,
            11.852243418622846,
            12.879116950422812,
            13.958568698434911,
            14.001597018321446,
            14.697676549286449,
            14.704405148329805,
            15.199340674495641,
            15.432679860067726,
            15.453707368789576,
            15.589495212998466,
            15.653271419839657,
            16.355383104045643,
            16.805322791167132,
            16.993342320936833,
            17.01687924406235,
            18.60534430046143,
            18.82594240953052,
            19.039416301810245,
            19.531516078284966,
            21.40657790366891,
            21.460913507079834,
            21.807649843252854,
            23.99009630579737,
            24.77140246849149,
            24.798478981375595,
            25.543184730518092,
            25.75459356831387,
            26.549792799923065,
            27.22656994756424,
            28.01634001982913,
            28.09922208374609,
            28.73791241576678,
            28.764823330248447
        ]
    },
    "born_effective_charge": {
        "avg_abs_trace": 2.321163636363637,
        "tensors": [
            [
                [
                    2.66676,
                    -0.26355,
                    -0.21233
                ],
                [
                    0.07776,
                    3.09055,
                    0.07479
                ],
                [
                    -0.23485,
                    -0.00019,
                    3.01702
                ]
            ],
            [
                [
                    2.66676,
                    0.26355,
                    -0.21233
                ],
                [
                    -0.07776,
                    3.09055,
                    -0.07479
                ],
                [
                    -0.23485,
                    0.00016,
                    3.01703
                ]
            ],
            [
                [
                    2.66676,
                    -0.26355,
                    -0.21233
                ],
                [
                    0.0778,
                    3.09055,
                    0.07479
                ],
                [
                    -0.23485,
                    -0.00016,
                    3.01703
                ]
            ],
            [
                [
                    2.66676,
                    0.26355,
                    -0.21233
                ],
                [
                    -0.0778,
                    3.09055,
                    -0.07479
                ],
                [
                    -0.23485,
                    0.00019,
                    3.01702
                ]
            ],
            [
                [
                    3.60946,
                    -0.05523,
                    0.01336
                ],
                [
                    -0.35396,
                    3.38059,
                    0.03612
                ],
                [
                    -0.00032,
                    0.01421,
                    3.38519
                ]
            ],
            [
                [
                    3.60945,
                    0.05522,
                    0.01332
                ],
                [
                    0.35396,
                    3.38059,
                    -0.03612
                ],
                [
                    -0.00031,
                    -0.01419,
                    3.38522
                ]
            ],
            [
                [
                    3.60945,
                    -0.05522,
                    0.01332
                ],
                [
                    -0.35395,
                    3.38062,
                    0.03611
                ],
                [
                    -0.00031,
                    0.01419,
                    3.38522
                ]
            ],
            [
                [
                    3.60946,
                    0.05523,
                    0.01336
                ],
                [
                    0.35395,
                    3.38062,
                    -0.03611
                ],
                [
                    -0.00032,
                    -0.01421,
                    3.38519
                ]
            ],
            [
                [
                    -1.53026,
                    0.27607,
                    0.55869
                ],
                [
                    0.21871,
                    -1.81057,
                    0.19402
                ],
                [
                    0.37242,
                    0.14902,
                    -2.32181
                ]
            ],
            [
                [
                    -1.53033,
                    -0.27608,
                    0.5587
                ],
                [
                    -0.21871,
                    -1.81057,
                    -0.19402
                ],
                [
                    0.37249,
                    -0.14896,
                    -2.3219
                ]
            ],
            [
                [
                    -1.53033,
                    0.27608,
                    0.5587
                ],
                [
                    0.21902,
                    -1.81046,
                    0.194
                ],
                [
                    0.37249,
                    0.14896,
                    -2.3219
                ]
            ],
            [
                [
                    -1.53026,
                    -0.27607,
                    0.55869
                ],
                [
                    -0.21902,
                    -1.81046,
                    -0.194
                ],
                [
                    0.37242,
                    -0.14902,
                    -2.32181
                ]
            ],
            [
                [
                    -1.94308,
                    0.1761,
                    -0.31203
                ],
                [
                    0.26059,
                    -1.92114,
                    0.55348
                ],
                [
                    -0.22588,
                    0.56729,
                    -1.83885
                ]
            ],
            [
                [
                    -1.94305,
                    -0.17608,
                    -0.31207
                ],
                [
                    -0.26059,
                    -1.92114,
                    -0.55348
                ],
                [
                    -0.22589,
                    -0.56735,
                    -1.83884
                ]
            ],
            [
                [
                    -1.94305,
                    0.17608,
                    -0.31207
                ],
                [
                    0.26078,
                    -1.92115,
                    0.55352
                ],
                [
                    -0.22589,
                    0.56735,
                    -1.83884
                ]
            ],
            [
                [
                    -1.94308,
                    -0.1761,
                    -0.31203
                ],
                [
                    -0.26078,
                    -1.92115,
                    -0.55352
                ],
                [
                    -0.22588,
                    -0.56729,
                    -1.83885
                ]
            ],
            [
                [
                    -2.84973,
                    4e-05,
                    -0.48406
                ],
                [
                    -0.0,
                    -1.1571,
                    0.0
                ],
                [
                    -0.44443,
                    5e-05,
                    -1.1893
                ]
            ],
            [
                [
                    -2.84973,
                    -4e-05,
                    -0.48406
                ],
                [
                    -0.0,
                    -1.15748,
                    0.0
                ],
                [
                    -0.44443,
                    -5e-05,
                    -1.1893
                ]
            ],
            [
                [
                    -1.37799,
                    -0.20774,
                    0.1944
                ],
                [
                    -0.4032,
                    -2.16086,
                    0.46751
                ],
                [
                    0.31083,
                    0.49955,
                    -1.64688
                ]
            ],
            [
                [
                    -1.37798,
                    0.20774,
                    0.19436
                ],
                [
                    0.4032,
                    -2.16086,
                    -0.46751
                ],
                [
                    0.31078,
                    -0.4995,
                    -1.64688
                ]
            ],
            [
                [
                    -1.37798,
                    -0.20774,
                    0.19436
                ],
                [
                    -0.40322,
                    -2.16085,
                    0.46731
                ],
                [
                    0.31078,
                    0.4995,
                    -1.64688
                ]
            ],
            [
                [
                    -1.37799,
                    0.20774,
                    0.1944
                ],
                [
                    0.40322,
                    -2.16085,
                    -0.46731
                ],
                [
                    0.31083,
                    -0.49955,
                    -1.64688
                ]
            ]
        ]
    },
    "band_gap": 3.2985000000000007,
    "is_direct": true,
    "formula": "Al2Ge2O7"
}