{
    "mp_id": "mp-935811",
    "nelements": 3,
    "nsites": 5,
    "elements": [
        "K",
        "Nb",
        "O"
    ],
    "structure": {
        "@module": "pymatgen.core.structure",
        "@class": "Structure",
        "charge": null,
        "lattice": {
            "matrix": [
                [
                    4.04528064,
                    0.0,
                    0.0
                ],
                [
                    0.0,
                    4.04528064,
                    0.0
                ],
                [
                    0.0,
                    0.0,
                    4.04528064
                ]
            ],
            "a": 4.04528064,
            "b": 4.04528064,
            "c": 4.04528064,
            "alpha": 90.0,
            "beta": 90.0,
            "gamma": 90.0,
            "volume": 66.19816759684824
        },
        "sites": [
            {
                "species": [
                    {
                        "element": "K",
                        "occu": 1
                    }
                ],
                "abc": [
                    0.0,
                    0.0,
                    0.0
                ],
                "xyz": [
                    0.0,
                    0.0,
                    0.0
                ],
                "label": "K",
                "properties": {}
            },
            {
                "species": [
                    {
                        "element": "Nb",
                        "occu": 1
                    }
                ],
                "abc": [
                    0.5,
                    0.5,
                    0.5
                ],
                "xyz": [
                    2.02264032,
                    2.02264032,
                    2.02264032
                ],
                "label": "Nb",
                "properties": {}
            },
            {
                "species": [
                    {
                        "element": "O",
                        "occu": 1
                    }
                ],
                "abc": [
                    0.0,
                    0.5,
                    0.5
                ],
                "xyz": [
                    0.0,
                    2.02264032,
                    2.02264032
                ],
                "label": "O",
                "properties": {}
            },
            {
                "species": [
                    {
                        "element": "O",
                        "occu": 1
                    }
                ],
                "abc": [
                    0.5,
                    0.0,
                    0.5
                ],
                "xyz": [
                    2.02264032,
                    0.0,
                    2.02264032
                ],
                "label": "O",
                "properties": {}
            },
            {
                "species": [
                    {
                        "element": "O",
                        "occu": 1
                    }
                ],
                "abc": [
                    0.5,
                    0.5,
                    0.0
                ],
                "xyz": [
                    2.02264032,
                    2.02264032,
                    0.0
                ],
                "label": "O",
                "properties": {}
            }
        ]
    },
    "spacegroup": {
        "source": "spglib",
        "symbol": "Pm-3m",
        "number": 221,
        "point_group": "m-3m",
        "crystal_system": "cubic",
        "hall": "-P 4 2 3"
    },
    "dielectric": {
        "epsilon_ionic": [
            [
                314.81870948,
                0.0,
                0.0
            ],
            [
                0.0,
                314.81886223,
                0.0
            ],
            [
                0.0,
                0.0,
                314.81887905
            ]
        ],
        "epsilon_ionic_avg": 314.81881692,
        "epsilon_ionic_eig": [
            314.81870948,
            314.81886223,
            314.81887905
        ],
        "epsilon_electronic": [
            [
                6.14431134,
                -0.0,
                -0.0
            ],
            [
                -0.0,
                6.14431134,
                -0.0
            ],
            [
                -0.0,
                0.0,
                6.14431134
            ]
        ],
        "epsilon_electronic_avg": 6.144311339999999,
        "epsilon_electronic_eig": [
            6.14431134,
            6.14431134,
            6.14431134
        ]
    },
    "phonon": {
        "lowest_freq": -0.17206257701549924,
        "frequency": [
            -0.17206257701549924,
            -0.17206257701549924,
            -0.17206257701549924,
            2.6465658511594063,
            2.6465658511594063,
            2.6465658511594063,
            5.4591519012247955,
            5.4591519012247955,
            5.4591519012247955,
            7.698126563038922,
            7.698126563038922,
            7.698126563038922,
            15.30341179502148,
            15.30341179502148,
            15.30341179502148
        ]
    },
    "born_effective_charge": {
        "avg_abs_trace": 4.141029333333333,
        "tensors": [
            [
                [
                    1.13956,
                    -0.0,
                    -0.0
                ],
                [
                    -0.0,
                    1.13956,
                    0.0
                ],
                [
                    0.0,
                    -0.0,
                    1.13956
                ]
            ],
            [
                [
                    9.21301,
                    -0.0,
                    0.0
                ],
                [
                    0.0,
                    9.21301,
                    0.0
                ],
                [
                    -0.0,
                    0.0,
                    9.21301
                ]
            ],
            [
                [
                    -7.01931,
                    0.0,
                    0.0
                ],
                [
                    -0.0,
                    -1.66663,
                    -0.0
                ],
                [
                    -0.0,
                    0.0,
                    -1.66663
                ]
            ],
            [
                [
                    -1.66663,
                    0.0,
                    0.0
                ],
                [
                    -0.0,
                    -7.01932,
                    0.0
                ],
                [
                    -0.0,
                    0.0,
                    -1.66663
                ]
            ],
            [
                [
                    -1.66663,
                    0.0,
                    0.0
                ],
                [
                    -0.0,
                    -1.66663,
                    0.0
                ],
                [
                    -0.0,
                    0.0,
                    -7.01932
                ]
            ]
        ]
    },
    "band_gap": 1.7428,
    "is_direct": false,
    "formula": "KNbO3"
}