{
    "mp_id": "mp-9127",
    "nelements": 3,
    "nsites": 9,
    "elements": [
        "Ba",
        "O",
        "Sb"
    ],
    "structure": {
        "@module": "pymatgen.core.structure",
        "@class": "Structure",
        "charge": null,
        "lattice": {
            "matrix": [
                [
                    5.33962854,
                    0.0,
                    0.0
                ],
                [
                    -2.66981377,
                    4.62425362,
                    0.0
                ],
                [
                    0.0,
                    0.0,
                    5.79002083
                ]
            ],
            "a": 5.33962854,
            "b": 5.339627993462159,
            "c": 5.79002083,
            "alpha": 90.0,
            "beta": 90.0,
            "gamma": 119.99999719073926,
            "volume": 142.9660166762596
        },
        "sites": [
            {
                "species": [
                    {
                        "element": "Ba",
                        "occu": 1
                    }
                ],
                "abc": [
                    0.0,
                    0.0,
                    0.0
                ],
                "xyz": [
                    0.0,
                    0.0,
                    0.0
                ],
                "label": "Ba",
                "properties": {}
            },
            {
                "species": [
                    {
                        "element": "Sb",
                        "occu": 1
                    }
                ],
                "abc": [
                    0.666667,
                    0.333333,
                    0.5
                ],
                "xyz": [
                    2.6698171064807696,
                    1.5414163319154601,
                    2.895010415
                ],
                "label": "Sb",
                "properties": {}
            },
            {
                "species": [
                    {
                        "element": "Sb",
                        "occu": 1
                    }
                ],
                "abc": [
                    0.333333,
                    0.666667,
                    0.5
                ],
                "xyz": [
                    -2.3364807704151502e-06,
                    3.0828372880845403,
                    2.895010415
                ],
                "label": "Sb",
                "properties": {}
            },
            {
                "species": [
                    {
                        "element": "O",
                        "occu": 1
                    }
                ],
                "abc": [
                    0.38504034,
                    0.38504034,
                    0.6957727
                ],
                "xyz": [
                    1.0279863867778214,
                    1.7805241860910308,
                    4.0285384259453405
                ],
                "label": "O",
                "properties": {}
            },
            {
                "species": [
                    {
                        "element": "O",
                        "occu": 1
                    }
                ],
                "abc": [
                    0.61495966,
                    0.0,
                    0.6957727
                ],
                "xyz": [
                    3.2836561514846965,
                    0.0,
                    4.0285384259453405
                ],
                "label": "O",
                "properties": {}
            },
            {
                "species": [
                    {
                        "element": "O",
                        "occu": 1
                    }
                ],
                "abc": [
                    0.0,
                    0.61495966,
                    0.6957727
                ],
                "xyz": [
                    -1.6418277682625184,
                    2.8437294339089694,
                    4.0285384259453405
                ],
                "label": "O",
                "properties": {}
            },
            {
                "species": [
                    {
                        "element": "O",
                        "occu": 1
                    }
                ],
                "abc": [
                    0.38504034,
                    0.0,
                    0.3042273
                ],
                "xyz": [
                    2.055972388515303,
                    0.0,
                    1.7614824040546588
                ],
                "label": "O",
                "properties": {}
            },
            {
                "species": [
                    {
                        "element": "O",
                        "occu": 1
                    }
                ],
                "abc": [
                    0.0,
                    0.38504034,
                    0.3042273
                ],
                "xyz": [
                    -1.0279860017374818,
                    1.7805241860910308,
                    1.7614824040546588
                ],
                "label": "O",
                "properties": {}
            },
            {
                "species": [
                    {
                        "element": "O",
                        "occu": 1
                    }
                ],
                "abc": [
                    0.61495966,
                    0.61495966,
                    0.3042273
                ],
                "xyz": [
                    1.641828383222178,
                    2.8437294339089694,
                    1.7614824040546588
                ],
                "label": "O",
                "properties": {}
            }
        ]
    },
    "spacegroup": {
        "source": "spglib",
        "symbol": "P-31m",
        "number": 162,
        "point_group": "-3m",
        "crystal_system": "trigonal",
        "hall": "-P 3 2"
    },
    "dielectric": {
        "epsilon_ionic": [
            [
                6.76231775,
                1e-08,
                -5.498e-05
            ],
            [
                1e-08,
                6.76235517,
                1e-08
            ],
            [
                -5.498e-05,
                1e-08,
                4.84200575
            ]
        ],
        "epsilon_ionic_avg": 6.122226223333333,
        "epsilon_ionic_eig": [
            4.842005748425879,
            6.762317751571445,
            6.762355170002674
        ],
        "epsilon_electronic": [
            [
                3.64068031,
                0.0,
                0.0
            ],
            [
                0.0,
                3.6406811,
                0.0
            ],
            [
                -0.0,
                0.0,
                3.11201382
            ]
        ],
        "epsilon_electronic_avg": 3.46445841,
        "epsilon_electronic_eig": [
            3.64068031,
            3.6406811,
            3.11201382
        ]
    },
    "phonon": {
        "lowest_freq": -0.028884965490941293,
        "frequency": [
            -0.028884965490941293,
            -0.011264904543150782,
            -0.011264903317342954,
            2.7835692537265126,
            2.7835695566399057,
            3.3726782000163786,
            4.527249192110731,
            5.712804867356125,
            5.712805124042777,
            7.521889493031289,
            7.807032054768826,
            8.482440037984421,
            8.482440426952888,
            9.185071443322784,
            9.185072334704419,
            14.750805237707112,
            14.750805966725315,
            14.954165313220832,
            14.954166024153555,
            16.053532964665692,
            16.05353319302676,
            17.187571380347634,
            17.79111123934491,
            19.07763582127048,
            19.163967060301854,
            19.16396712406739,
            19.28196613563637
        ]
    },
    "born_effective_charge": {
        "avg_abs_trace": 2.5069329629629626,
        "tensors": [
            [
                [
                    2.5292,
                    0.0,
                    -7e-05
                ],
                [
                    0.0,
                    2.52924,
                    0.0
                ],
                [
                    0.0,
                    -0.0,
                    3.50356
                ]
            ],
            [
                [
                    4.89977,
                    7e-05,
                    9e-05
                ],
                [
                    0.0,
                    4.89973,
                    0.0
                ],
                [
                    0.0,
                    -0.0,
                    2.84135
                ]
            ],
            [
                [
                    4.89977,
                    -7e-05,
                    9e-05
                ],
                [
                    0.0,
                    4.89963,
                    0.0
                ],
                [
                    0.0,
                    -0.0,
                    2.84135
                ]
            ],
            [
                [
                    -2.25995,
                    0.35533,
                    0.19993
                ],
                [
                    0.35539,
                    -1.84957,
                    0.3463
                ],
                [
                    0.2279,
                    0.39474,
                    -1.53109
                ]
            ],
            [
                [
                    -1.64457,
                    0.0,
                    -0.39991
                ],
                [
                    -0.00021,
                    -2.46502,
                    5e-05
                ],
                [
                    -0.45581,
                    -0.0,
                    -1.53109
                ]
            ],
            [
                [
                    -2.25995,
                    -0.35533,
                    0.19993
                ],
                [
                    -0.35527,
                    -1.84971,
                    -0.34626
                ],
                [
                    0.2279,
                    -0.39474,
                    -1.53109
                ]
            ],
            [
                [
                    -1.64443,
                    0.0,
                    -0.39991
                ],
                [
                    0.00021,
                    -2.46502,
                    -5e-05
                ],
                [
                    -0.45569,
                    -0.0,
                    -1.531
                ]
            ],
            [
                [
                    -2.25991,
                    -0.35537,
                    0.19992
                ],
                [
                    -0.35539,
                    -1.84957,
                    -0.3463
                ],
                [
                    0.22785,
                    -0.39464,
                    -1.531
                ]
            ],
            [
                [
                    -2.25991,
                    0.35537,
                    0.19992
                ],
                [
                    0.35527,
                    -1.84971,
                    0.34626
                ],
                [
                    0.22785,
                    0.39464,
                    -1.531
                ]
            ]
        ]
    },
    "band_gap": 2.9954,
    "is_direct": false,
    "formula": "Ba(SbO3)2"
}