{
    "mp_id": "mp-998552",
    "nelements": 3,
    "nsites": 5,
    "elements": [
        "Ba",
        "Hf",
        "O"
    ],
    "structure": {
        "@module": "pymatgen.core.structure",
        "@class": "Structure",
        "charge": null,
        "lattice": {
            "matrix": [
                [
                    4.194266,
                    0.0,
                    0.0
                ],
                [
                    0.0,
                    4.194266,
                    0.0
                ],
                [
                    0.0,
                    0.0,
                    4.194266
                ]
            ],
            "a": 4.194266,
            "b": 4.194266,
            "c": 4.194266,
            "alpha": 90.0,
            "beta": 90.0,
            "gamma": 90.0,
            "volume": 73.7849708037988
        },
        "sites": [
            {
                "species": [
                    {
                        "element": "Ba",
                        "occu": 1
                    }
                ],
                "abc": [
                    0.5,
                    0.5,
                    0.5
                ],
                "xyz": [
                    2.097133,
                    2.097133,
                    2.097133
                ],
                "label": "Ba",
                "properties": {}
            },
            {
                "species": [
                    {
                        "element": "Hf",
                        "occu": 1
                    }
                ],
                "abc": [
                    0.0,
                    0.0,
                    0.0
                ],
                "xyz": [
                    0.0,
                    0.0,
                    0.0
                ],
                "label": "Hf",
                "properties": {}
            },
            {
                "species": [
                    {
                        "element": "O",
                        "occu": 1
                    }
                ],
                "abc": [
                    0.0,
                    0.5,
                    0.0
                ],
                "xyz": [
                    0.0,
                    2.097133,
                    0.0
                ],
                "label": "O",
                "properties": {}
            },
            {
                "species": [
                    {
                        "element": "O",
                        "occu": 1
                    }
                ],
                "abc": [
                    0.5,
                    0.0,
                    0.0
                ],
                "xyz": [
                    2.097133,
                    0.0,
                    0.0
                ],
                "label": "O",
                "properties": {}
            },
            {
                "species": [
                    {
                        "element": "O",
                        "occu": 1
                    }
                ],
                "abc": [
                    0.0,
                    0.0,
                    0.5
                ],
                "xyz": [
                    0.0,
                    0.0,
                    2.097133
                ],
                "label": "O",
                "properties": {}
            }
        ]
    },
    "spacegroup": {
        "source": "spglib",
        "symbol": "Pm-3m",
        "number": 221,
        "point_group": "m-3m",
        "crystal_system": "cubic",
        "hall": "-P 4 2 3"
    },
    "dielectric": {
        "epsilon_ionic": [
            [
                23.34863442,
                0.0,
                0.0
            ],
            [
                0.0,
                23.34854947,
                0.0
            ],
            [
                0.0,
                0.0,
                23.34861686
            ]
        ],
        "epsilon_ionic_avg": 23.34860025,
        "epsilon_ionic_eig": [
            23.34863442,
            23.34854947,
            23.34861686
        ],
        "epsilon_electronic": [
            [
                4.42487461,
                0.0,
                -0.0
            ],
            [
                0.0,
                4.42487461,
                0.0
            ],
            [
                -0.0,
                0.0,
                4.42487461
            ]
        ],
        "epsilon_electronic_avg": 4.42487461,
        "epsilon_electronic_eig": [
            4.42487461,
            4.42487461,
            4.42487461
        ]
    },
    "phonon": {
        "lowest_freq": -0.01835630639897131,
        "frequency": [
            -0.01835630639897131,
            -0.01835630639897131,
            -0.01835630639897131,
            3.0705255472542357,
            3.0705255472542357,
            3.0705255472542357,
            6.368474686397607,
            6.368474686397607,
            6.368474686397607,
            6.967994794369488,
            6.967994794369488,
            6.967994794369488,
            17.228371697802046,
            17.228371697802046,
            17.228371697802046
        ]
    },
    "born_effective_charge": {
        "avg_abs_trace": 3.265382,
        "tensors": [
            [
                [
                    2.71677,
                    0.0,
                    0.0
                ],
                [
                    -0.0,
                    2.71675,
                    -0.0
                ],
                [
                    -0.0,
                    0.0,
                    2.71676
                ]
            ],
            [
                [
                    5.44669,
                    -0.0,
                    -0.0
                ],
                [
                    -0.0,
                    5.4467,
                    0.0
                ],
                [
                    0.0,
                    -0.0,
                    5.44669
                ]
            ],
            [
                [
                    -1.98862,
                    -0.0,
                    -0.0
                ],
                [
                    -0.0,
                    -4.18621,
                    -0.0
                ],
                [
                    -0.0,
                    0.0,
                    -1.98862
                ]
            ],
            [
                [
                    -4.18622,
                    -0.0,
                    -0.0
                ],
                [
                    -0.0,
                    -1.98862,
                    -0.0
                ],
                [
                    -0.0,
                    0.0,
                    -1.98862
                ]
            ],
            [
                [
                    -1.98862,
                    -0.0,
                    -0.0
                ],
                [
                    0.0,
                    -1.98862,
                    -0.0
                ],
                [
                    -0.0,
                    0.0,
                    -4.18622
                ]
            ]
        ]
    },
    "band_gap": 3.9434000000000005,
    "is_direct": false,
    "formula": "BaHfO3"
}