{
    "mp_id": "mp-9212",
    "nelements": 3,
    "nsites": 16,
    "elements": [
        "Al",
        "Na",
        "O"
    ],
    "structure": {
        "@module": "pymatgen.core.structure",
        "@class": "Structure",
        "charge": null,
        "lattice": {
            "matrix": [
                [
                    5.40281863,
                    0.0,
                    0.0
                ],
                [
                    0.0,
                    6.96065086,
                    0.0
                ],
                [
                    0.0,
                    0.0,
                    5.19914839
                ]
            ],
            "a": 5.40281863,
            "b": 6.96065086,
            "c": 5.19914839,
            "alpha": 90.0,
            "beta": 90.0,
            "gamma": 90.0,
            "volume": 195.5250709338265
        },
        "sites": [
            {
                "species": [
                    {
                        "element": "Na",
                        "occu": 1
                    }
                ],
                "abc": [
                    0.42953058,
                    0.12256475,
                    0.4845333
                ],
                "xyz": [
                    2.3206758197787054,
                    0.853130432493185,
                    2.5191605265963872
                ],
                "label": "Na",
                "properties": {}
            },
            {
                "species": [
                    {
                        "element": "Na",
                        "occu": 1
                    }
                ],
                "abc": [
                    0.07046942,
                    0.62256475,
                    0.9845333
                ],
                "xyz": [
                    0.3807334952212946,
                    4.333455862493185,
                    5.118734721596387
                ],
                "label": "Na",
                "properties": {}
            },
            {
                "species": [
                    {
                        "element": "Na",
                        "occu": 1
                    }
                ],
                "abc": [
                    0.57046942,
                    0.87743525,
                    0.9845333
                ],
                "xyz": [
                    3.082142810221294,
                    6.107520427506815,
                    5.118734721596387
                ],
                "label": "Na",
                "properties": {}
            },
            {
                "species": [
                    {
                        "element": "Na",
                        "occu": 1
                    }
                ],
                "abc": [
                    0.92953058,
                    0.37743525,
                    0.4845333
                ],
                "xyz": [
                    5.022085134778705,
                    2.627194997506815,
                    2.5191605265963872
                ],
                "label": "Na",
                "properties": {}
            },
            {
                "species": [
                    {
                        "element": "Al",
                        "occu": 1
                    }
                ],
                "abc": [
                    0.56326546,
                    0.37404259,
                    8.18e-05
                ],
                "xyz": [
                    3.0432211209235196,
                    2.6035798757601274,
                    0.000425290338302
                ],
                "label": "Al",
                "properties": {}
            },
            {
                "species": [
                    {
                        "element": "Al",
                        "occu": 1
                    }
                ],
                "abc": [
                    0.43673454,
                    0.62595741,
                    0.5000818
                ],
                "xyz": [
                    2.35959750907648,
                    4.357070984239873,
                    2.5999994853383024
                ],
                "label": "Al",
                "properties": {}
            },
            {
                "species": [
                    {
                        "element": "Al",
                        "occu": 1
                    }
                ],
                "abc": [
                    0.93673454,
                    0.87404259,
                    0.5000818
                ],
                "xyz": [
                    5.06100682407648,
                    6.083905305760127,
                    2.5999994853383024
                ],
                "label": "Al",
                "properties": {}
            },
            {
                "species": [
                    {
                        "element": "Al",
                        "occu": 1
                    }
                ],
                "abc": [
                    0.06326546,
                    0.12595741,
                    8.18e-05
                ],
                "xyz": [
                    0.34181180592351973,
                    0.8767455542398725,
                    0.000425290338302
                ],
                "label": "Al",
                "properties": {}
            },
            {
                "species": [
                    {
                        "element": "O",
                        "occu": 1
                    }
                ],
                "abc": [
                    0.87913352,
                    0.3297832,
                    0.92576883
                ],
                "xyz": [
                    4.749798960113477,
                    2.2955057146935522,
                    4.813209522006684
                ],
                "label": "O",
                "properties": {}
            },
            {
                "species": [
                    {
                        "element": "O",
                        "occu": 1
                    }
                ],
                "abc": [
                    0.12086648,
                    0.6702168,
                    0.42576883
                ],
                "xyz": [
                    0.6530196698865224,
                    4.665145145306448,
                    2.213635327006684
                ],
                "label": "O",
                "properties": {}
            },
            {
                "species": [
                    {
                        "element": "O",
                        "occu": 1
                    }
                ],
                "abc": [
                    0.62086648,
                    0.8297832,
                    0.42576883
                ],
                "xyz": [
                    3.354428984886522,
                    5.775831144693552,
                    2.213635327006684
                ],
                "label": "O",
                "properties": {}
            },
            {
                "species": [
                    {
                        "element": "O",
                        "occu": 1
                    }
                ],
                "abc": [
                    0.37913352,
                    0.1702168,
                    0.92576883
                ],
                "xyz": [
                    2.0483896451134775,
                    1.1848197153064481,
                    4.813209522006684
                ],
                "label": "O",
                "properties": {}
            },
            {
                "species": [
                    {
                        "element": "O",
                        "occu": 1
                    }
                ],
                "abc": [
                    0.53553002,
                    0.41873575,
                    0.33401707
                ],
                "xyz": [
                    2.893371568980273,
                    2.914673358350245,
                    1.7366043117230177
                ],
                "label": "O",
                "properties": {}
            },
            {
                "species": [
                    {
                        "element": "O",
                        "occu": 1
                    }
                ],
                "abc": [
                    0.03553002,
                    0.08126425,
                    0.33401707
                ],
                "xyz": [
                    0.1919622539802726,
                    0.565652071649755,
                    1.7366043117230177
                ],
                "label": "O",
                "properties": {}
            },
            {
                "species": [
                    {
                        "element": "O",
                        "occu": 1
                    }
                ],
                "abc": [
                    0.96446998,
                    0.91873575,
                    0.83401707
                ],
                "xyz": [
                    5.210856376019727,
                    6.394998788350245,
                    4.336178506723018
                ],
                "label": "O",
                "properties": {}
            },
            {
                "species": [
                    {
                        "element": "O",
                        "occu": 1
                    }
                ],
                "abc": [
                    0.46446998,
                    0.58126425,
                    0.83401707
                ],
                "xyz": [
                    2.5094470610197273,
                    4.045977501649755,
                    4.336178506723018
                ],
                "label": "O",
                "properties": {}
            }
        ]
    },
    "spacegroup": {
        "source": "spglib",
        "symbol": "Pna2_1",
        "number": 33,
        "point_group": "mm2",
        "crystal_system": "orthorhombic",
        "hall": "P 2c -2n"
    },
    "dielectric": {
        "epsilon_ionic": [
            [
                3.07118533,
                0.0,
                2.3e-07
            ],
            [
                0.0,
                2.36341848,
                -2.7e-07
            ],
            [
                2.3e-07,
                -2.7e-07,
                3.68738904
            ]
        ],
        "epsilon_ionic_avg": 3.040664283333333,
        "epsilon_ionic_eig": [
            3.0711853299999152,
            3.687389040000139,
            2.363418479999944
        ],
        "epsilon_electronic": [
            [
                2.62523657,
                0.0,
                0.0
            ],
            [
                0.0,
                2.56311032,
                0.0
            ],
            [
                0.0,
                0.0,
                2.61388606
            ]
        ],
        "epsilon_electronic_avg": 2.600744316666667,
        "epsilon_electronic_eig": [
            2.62523657,
            2.56311032,
            2.61388606
        ]
    },
    "phonon": {
        "lowest_freq": -0.16893420213318047,
        "frequency": [
            -0.16893420213318047,
            -0.15841322499083565,
            -0.15418342682775266,
            4.2055759856622865,
            4.480132626841866,
            4.627001909702302,
            5.055953025020175,
            5.786223155294572,
            5.824760192134904,
            5.9765930346156155,
            6.011735904043619,
            6.083879776853782,
            6.1377492047852575,
            6.729814958434435,
            6.86960640589052,
            7.282289863468598,
            7.289638792694931,
            7.39243337885009,
            7.716912886374318,
            7.886660405125796,
            8.351173787041535,
            8.456063687872321,
            8.734285995547234,
            9.474302984803167,
            9.775690348392102,
            10.695063528956432,
            10.891309895710643,
            12.070352900411306,
            12.113849958181607,
            12.761906688193406,
            12.828078820522219,
            13.010071636258061,
            13.222634392232308,
            15.102451181322172,
            16.205882162302245,
            18.20909766875911,
            18.347035421395358,
            18.735597318851244,
            19.070892359684898,
            19.49335270504897,
            23.2007230157611,
            23.295875315625253,
            23.353808127293075,
            23.978833218046795,
            24.066472629513804,
            24.108935746050168,
            24.871259283470916,
            25.596086452036857
        ]
    },
    "born_effective_charge": {
        "avg_abs_trace": 1.7098974999999998,
        "tensors": [
            [
                [
                    1.02199,
                    0.00954,
                    0.00835
                ],
                [
                    0.0138,
                    1.01374,
                    -0.00959
                ],
                [
                    0.00329,
                    -0.00857,
                    1.04916
                ]
            ],
            [
                [
                    1.02199,
                    -0.00954,
                    -0.00835
                ],
                [
                    -0.0138,
                    1.01374,
                    -0.00959
                ],
                [
                    -0.00329,
                    -0.00857,
                    1.04916
                ]
            ],
            [
                [
                    1.02199,
                    0.00954,
                    -0.00835
                ],
                [
                    0.0138,
                    1.01374,
                    0.00959
                ],
                [
                    -0.00329,
                    0.00857,
                    1.04916
                ]
            ],
            [
                [
                    1.02199,
                    -0.00954,
                    0.00835
                ],
                [
                    -0.0138,
                    1.01374,
                    0.00959
                ],
                [
                    0.00329,
                    0.00857,
                    1.04916
                ]
            ],
            [
                [
                    2.43016,
                    0.06878,
                    -0.04041
                ],
                [
                    -0.15002,
                    2.33811,
                    0.1095
                ],
                [
                    0.03802,
                    -0.12312,
                    2.40623
                ]
            ],
            [
                [
                    2.43016,
                    0.06878,
                    0.04041
                ],
                [
                    -0.15002,
                    2.33811,
                    -0.1095
                ],
                [
                    -0.03802,
                    0.12312,
                    2.40623
                ]
            ],
            [
                [
                    2.43016,
                    -0.06878,
                    0.04041
                ],
                [
                    0.15002,
                    2.33811,
                    0.1095
                ],
                [
                    -0.03802,
                    -0.12312,
                    2.40623
                ]
            ],
            [
                [
                    2.43016,
                    -0.06878,
                    -0.04041
                ],
                [
                    0.15002,
                    2.33811,
                    -0.1095
                ],
                [
                    0.03802,
                    0.12312,
                    2.40623
                ]
            ],
            [
                [
                    -2.09067,
                    0.40545,
                    0.03957
                ],
                [
                    0.40429,
                    -1.67348,
                    0.06826
                ],
                [
                    0.01878,
                    0.06828,
                    -1.37615
                ]
            ],
            [
                [
                    -2.09067,
                    0.40545,
                    -0.03958
                ],
                [
                    0.40429,
                    -1.67348,
                    -0.06826
                ],
                [
                    -0.01878,
                    -0.06828,
                    -1.37615
                ]
            ],
            [
                [
                    -2.09067,
                    -0.40545,
                    -0.03958
                ],
                [
                    -0.40429,
                    -1.67348,
                    0.06826
                ],
                [
                    -0.01878,
                    0.06828,
                    -1.37615
                ]
            ],
            [
                [
                    -2.09067,
                    -0.40545,
                    0.03957
                ],
                [
                    -0.40429,
                    -1.67348,
                    -0.06826
                ],
                [
                    0.01878,
                    -0.06828,
                    -1.37615
                ]
            ],
            [
                [
                    -1.36147,
                    0.08672,
                    0.11629
                ],
                [
                    0.16456,
                    -1.67837,
                    -0.39029
                ],
                [
                    0.12661,
                    -0.38666,
                    -2.07924
                ]
            ],
            [
                [
                    -1.36147,
                    -0.08672,
                    0.11629
                ],
                [
                    -0.16456,
                    -1.67837,
                    0.39029
                ],
                [
                    0.12661,
                    0.38666,
                    -2.07924
                ]
            ],
            [
                [
                    -1.36147,
                    -0.08672,
                    -0.11629
                ],
                [
                    -0.16456,
                    -1.67837,
                    -0.39029
                ],
                [
                    -0.12661,
                    -0.38666,
                    -2.07924
                ]
            ],
            [
                [
                    -1.36147,
                    0.08672,
                    -0.11629
                ],
                [
                    0.16456,
                    -1.67837,
                    0.39029
                ],
                [
                    -0.12661,
                    0.38666,
                    -2.07924
                ]
            ]
        ]
    },
    "band_gap": 3.9160000000000004,
    "is_direct": false,
    "formula": "NaAlO2"
}