{
    "mp_id": "mp-9297",
    "nelements": 3,
    "nsites": 14,
    "elements": [
        "Au",
        "Ba",
        "O"
    ],
    "structure": {
        "@module": "pymatgen.core.structure",
        "@class": "Structure",
        "charge": null,
        "lattice": {
            "matrix": [
                [
                    -3.21859382,
                    3.21859379,
                    5.10543072
                ],
                [
                    3.21859382,
                    -3.21859379,
                    5.10543072
                ],
                [
                    3.21859379,
                    3.21859382,
                    -5.10543072
                ]
            ],
            "a": 6.839891446498875,
            "b": 6.839891446498875,
            "c": 6.839891446498875,
            "alpha": 123.8584179839576,
            "beta": 123.8584179839576,
            "gamma": 83.43760335282373,
            "volume": 211.55569489613006
        },
        "sites": [
            {
                "species": [
                    {
                        "element": "Ba",
                        "occu": 1
                    }
                ],
                "abc": [
                    0.75,
                    0.25,
                    0.5
                ],
                "xyz": [
                    -1.4999999908837935e-08,
                    3.2185938050000003,
                    2.55271536
                ],
                "label": "Ba",
                "properties": {}
            },
            {
                "species": [
                    {
                        "element": "Ba",
                        "occu": 1
                    }
                ],
                "abc": [
                    0.0,
                    0.0,
                    0.0
                ],
                "xyz": [
                    0.0,
                    0.0,
                    0.0
                ],
                "label": "Ba",
                "properties": {}
            },
            {
                "species": [
                    {
                        "element": "Au",
                        "occu": 1
                    }
                ],
                "abc": [
                    0.375,
                    0.625,
                    0.75
                ],
                "xyz": [
                    3.2185937975,
                    1.6092969175,
                    1.2763576800000003
                ],
                "label": "Au",
                "properties": {}
            },
            {
                "species": [
                    {
                        "element": "Au",
                        "occu": 1
                    }
                ],
                "abc": [
                    0.375,
                    0.125,
                    0.75
                ],
                "xyz": [
                    1.6092968875,
                    3.2185938125,
                    -1.2763576799999998
                ],
                "label": "Au",
                "properties": {}
            },
            {
                "species": [
                    {
                        "element": "Au",
                        "occu": 1
                    }
                ],
                "abc": [
                    0.875,
                    0.625,
                    0.25
                ],
                "xyz": [
                    -7.500000176463573e-09,
                    1.6092969025000001,
                    6.3817884
                ],
                "label": "Au",
                "properties": {}
            },
            {
                "species": [
                    {
                        "element": "Au",
                        "occu": 1
                    }
                ],
                "abc": [
                    0.375,
                    0.625,
                    0.25
                ],
                "xyz": [
                    1.6092969025000001,
                    7.50000006544127e-09,
                    3.82907304
                ],
                "label": "Au",
                "properties": {}
            },
            {
                "species": [
                    {
                        "element": "O",
                        "occu": 1
                    }
                ],
                "abc": [
                    0.05555999,
                    0.43845529,
                    0.08694582
                ],
                "xyz": [
                    1.5122277226055036,
                    -0.9525411558733545,
                    2.078264926257811
                ],
                "label": "O",
                "properties": {}
            },
            {
                "species": [
                    {
                        "element": "O",
                        "occu": 1
                    }
                ],
                "abc": [
                    0.71861418,
                    0.30555999,
                    0.1171047
                ],
                "xyz": [
                    -0.9525412030592928,
                    1.706366114580434,
                    4.630980337312118
                ],
                "label": "O",
                "properties": {}
            },
            {
                "species": [
                    {
                        "element": "O",
                        "occu": 1
                    }
                ],
                "abc": [
                    0.18845529,
                    0.60150947,
                    0.8828953
                ],
                "xyz": [
                    4.171134960873355,
                    1.5122277376055044,
                    -0.47445043374218976
                ],
                "label": "O",
                "properties": {}
            },
            {
                "species": [
                    {
                        "element": "O",
                        "occu": 1
                    }
                ],
                "abc": [
                    0.35150947,
                    0.96861418,
                    0.91305418
                ],
                "xyz": [
                    4.924959919580434,
                    0.9525411536874169,
                    2.0782649773121182
                ],
                "label": "O",
                "properties": {}
            },
            {
                "species": [
                    {
                        "element": "O",
                        "occu": 1
                    }
                ],
                "abc": [
                    0.69444001,
                    0.81154471,
                    0.41305418
                ],
                "xyz": [
                    1.7063660823944964,
                    0.9525411708733549,
                    5.579881153742189
                ],
                "label": "O",
                "properties": {}
            },
            {
                "species": [
                    {
                        "element": "O",
                        "occu": 1
                    }
                ],
                "abc": [
                    0.03138582,
                    0.94444001,
                    0.3828953
                ],
                "xyz": [
                    4.171135008059292,
                    -1.7063660995804337,
                    3.027165742687882
                ],
                "label": "O",
                "properties": {}
            },
            {
                "species": [
                    {
                        "element": "O",
                        "occu": 1
                    }
                ],
                "abc": [
                    0.39849053,
                    0.28138582,
                    0.58694582
                ],
                "xyz": [
                    1.5122276754195656,
                    2.2660526813125834,
                    0.4744503826878823
                ],
                "label": "O",
                "properties": {}
            },
            {
                "species": [
                    {
                        "element": "O",
                        "occu": 1
                    }
                ],
                "abc": [
                    0.56154471,
                    0.64849053,
                    0.6171047
                ],
                "xyz": [
                    2.266052634126645,
                    1.7063660973944963,
                    3.0271657937421885
                ],
                "label": "O",
                "properties": {}
            }
        ]
    },
    "spacegroup": {
        "source": "spglib",
        "symbol": "I4_1/a",
        "number": 88,
        "point_group": "4/m",
        "crystal_system": "tetragonal",
        "hall": "I 4bw -1bw"
    },
    "dielectric": {
        "epsilon_ionic": [
            [
                3.98619636,
                -3.931e-05,
                0.0
            ],
            [
                -3.931e-05,
                3.98617056,
                0.0
            ],
            [
                0.0,
                0.0,
                4.00768338
            ]
        ],
        "epsilon_ionic_avg": 3.9933501000000002,
        "epsilon_ionic_eig": [
            3.986224832528325,
            3.9861420874716753,
            4.00768338
        ],
        "epsilon_electronic": [
            [
                5.37725806,
                1.03e-06,
                0.0
            ],
            [
                -1.03e-06,
                5.37725806,
                -0.0
            ],
            [
                0.0,
                0.0,
                7.10902762
            ]
        ],
        "epsilon_electronic_avg": 5.954514580000001,
        "epsilon_electronic_eig": [
            5.37725806,
            5.37725806,
            7.10902762
        ]
    },
    "phonon": {
        "lowest_freq": -0.0061579170364814625,
        "frequency": [
            -0.0061579170364814625,
            -0.0048073751069229,
            -0.004807375104380972,
            2.6055895752313947,
            2.9698575250871593,
            3.0897391228173223,
            3.0897391228173223,
            3.272978399362941,
            3.272978399362941,
            3.366943097588798,
            3.387923780743892,
            3.466205132465978,
            3.5125638702785413,
            3.5125638702785413,
            4.249773001614626,
            5.647872787573516,
            5.647872787573516,
            5.83514242158456,
            6.7718450017938885,
            6.7718450017938885,
            6.98907627777677,
            7.765247051542437,
            9.167260946519217,
            9.167260946519217,
            9.535390029227756,
            10.024595659508257,
            13.032523219936365,
            13.409517604620268,
            13.409517604620268,
            14.42497176912289,
            15.829057494718178,
            16.159224809823158,
            16.159224809823158,
            16.723986457445754,
            17.99944032763888,
            18.335108019389015,
            18.33714387342834,
            18.33714387342834,
            18.523119243611696,
            18.523119243611696,
            18.727091943673592,
            18.867557183866143
        ]
    },
    "born_effective_charge": {
        "avg_abs_trace": 1.8890976190476192,
        "tensors": [
            [
                [
                    2.97098,
                    0.03564,
                    0.00014
                ],
                [
                    -0.03567,
                    2.97098,
                    -1e-05
                ],
                [
                    -0.0,
                    -0.0,
                    2.60257
                ]
            ],
            [
                [
                    2.97098,
                    0.03564,
                    -0.00014
                ],
                [
                    -0.03567,
                    2.97098,
                    1e-05
                ],
                [
                    -0.0,
                    -0.0,
                    2.60257
                ]
            ],
            [
                [
                    2.59476,
                    -0.76095,
                    -0.32159
                ],
                [
                    -0.83765,
                    0.51257,
                    -0.80562
                ],
                [
                    0.52786,
                    -0.36846,
                    2.53816
                ]
            ],
            [
                [
                    0.51259,
                    0.83759,
                    0.80559
                ],
                [
                    0.76092,
                    2.59475,
                    -0.32155
                ],
                [
                    0.36846,
                    0.52786,
                    2.53816
                ]
            ],
            [
                [
                    2.59476,
                    -0.76095,
                    0.32159
                ],
                [
                    -0.83765,
                    0.51257,
                    0.80562
                ],
                [
                    -0.52786,
                    0.36846,
                    2.53816
                ]
            ],
            [
                [
                    0.51259,
                    0.83759,
                    -0.80559
                ],
                [
                    0.76092,
                    2.59475,
                    0.32155
                ],
                [
                    -0.36846,
                    -0.52786,
                    2.53816
                ]
            ],
            [
                [
                    -1.66492,
                    0.26595,
                    0.50516
                ],
                [
                    0.32242,
                    -1.37406,
                    -0.58
                ],
                [
                    0.6478,
                    -0.54781,
                    -1.91974
                ]
            ],
            [
                [
                    -1.3742,
                    -0.32205,
                    -0.58033
                ],
                [
                    -0.26623,
                    -1.66503,
                    -0.50535
                ],
                [
                    -0.54781,
                    -0.6478,
                    -1.91974
                ]
            ],
            [
                [
                    -1.37393,
                    -0.3224,
                    0.58
                ],
                [
                    -0.26588,
                    -1.66518,
                    0.5046
                ],
                [
                    0.54781,
                    0.6478,
                    -1.91974
                ]
            ],
            [
                [
                    -1.66528,
                    0.26621,
                    -0.50485
                ],
                [
                    0.32208,
                    -1.37403,
                    0.58026
                ],
                [
                    -0.6478,
                    0.54781,
                    -1.91974
                ]
            ],
            [
                [
                    -1.66528,
                    0.26621,
                    0.50485
                ],
                [
                    0.32208,
                    -1.37403,
                    -0.58026
                ],
                [
                    0.64773,
                    -0.54778,
                    -1.91971
                ]
            ],
            [
                [
                    -1.37393,
                    -0.3224,
                    -0.58
                ],
                [
                    -0.26588,
                    -1.66518,
                    -0.5046
                ],
                [
                    -0.54778,
                    -0.64773,
                    -1.91971
                ]
            ],
            [
                [
                    -1.66492,
                    0.26595,
                    -0.50516
                ],
                [
                    0.32242,
                    -1.37406,
                    0.58
                ],
                [
                    -0.64773,
                    0.54778,
                    -1.91971
                ]
            ],
            [
                [
                    -1.3742,
                    -0.32205,
                    0.58033
                ],
                [
                    -0.26623,
                    -1.66503,
                    0.50535
                ],
                [
                    0.54778,
                    0.64773,
                    -1.91971
                ]
            ]
        ]
    },
    "band_gap": 1.7753000000000005,
    "is_direct": false,
    "formula": "Ba(AuO2)2"
}