{
    "mp_id": "mp-996959",
    "nelements": 3,
    "nsites": 8,
    "elements": [
        "Au",
        "Li",
        "O"
    ],
    "structure": {
        "@module": "pymatgen.core.structure",
        "@class": "Structure",
        "charge": null,
        "lattice": {
            "matrix": [
                [
                    -2.10037916,
                    2.10037916,
                    5.27176174
                ],
                [
                    2.10037916,
                    -2.10037916,
                    5.27176174
                ],
                [
                    2.10037916,
                    2.10037916,
                    -5.27176174
                ]
            ],
            "a": 6.05100463351768,
            "b": 6.05100463351768,
            "c": 6.05100463351768,
            "alpha": 139.37839560391856,
            "beta": 139.37839560391856,
            "gamma": 58.79834378479867,
            "volume": 93.02746065696898
        },
        "sites": [
            {
                "species": [
                    {
                        "element": "Li",
                        "occu": 1
                    }
                ],
                "abc": [
                    0.75,
                    0.25,
                    0.5
                ],
                "xyz": [
                    0.0,
                    2.10037916,
                    2.63588087
                ],
                "label": "Li",
                "properties": {}
            },
            {
                "species": [
                    {
                        "element": "Li",
                        "occu": 1
                    }
                ],
                "abc": [
                    0.0,
                    0.0,
                    0.0
                ],
                "xyz": [
                    0.0,
                    0.0,
                    0.0
                ],
                "label": "Li",
                "properties": {}
            },
            {
                "species": [
                    {
                        "element": "Au",
                        "occu": 1
                    }
                ],
                "abc": [
                    0.5,
                    0.5,
                    0.0
                ],
                "xyz": [
                    0.0,
                    0.0,
                    5.27176174
                ],
                "label": "Au",
                "properties": {}
            },
            {
                "species": [
                    {
                        "element": "Au",
                        "occu": 1
                    }
                ],
                "abc": [
                    0.25,
                    0.75,
                    0.5
                ],
                "xyz": [
                    2.10037916,
                    0.0,
                    2.63588087
                ],
                "label": "Au",
                "properties": {}
            },
            {
                "species": [
                    {
                        "element": "O",
                        "occu": 1
                    }
                ],
                "abc": [
                    0.12238945,
                    0.625,
                    0.99738945
                ],
                "xyz": [
                    3.1505687399999998,
                    1.039223290367724,
                    -1.3179404349999997
                ],
                "label": "O",
                "properties": {}
            },
            {
                "species": [
                    {
                        "element": "O",
                        "occu": 1
                    }
                ],
                "abc": [
                    0.62761055,
                    0.125,
                    0.00261055
                ],
                "xyz": [
                    -1.05018958,
                    1.0611558696322763,
                    3.953821305
                ],
                "label": "O",
                "properties": {}
            },
            {
                "species": [
                    {
                        "element": "O",
                        "occu": 1
                    }
                ],
                "abc": [
                    0.375,
                    0.87761055,
                    0.00261055
                ],
                "xyz": [
                    1.0611558696322763,
                    -1.05018958,
                    6.589702174999999
                ],
                "label": "O",
                "properties": {}
            },
            {
                "species": [
                    {
                        "element": "O",
                        "occu": 1
                    }
                ],
                "abc": [
                    0.875,
                    0.37238945,
                    0.99738945
                ],
                "xyz": [
                    1.0392232903677239,
                    3.15056874,
                    1.3179404349999997
                ],
                "label": "O",
                "properties": {}
            }
        ]
    },
    "spacegroup": {
        "source": "spglib",
        "symbol": "I4_122",
        "number": 98,
        "point_group": "422",
        "crystal_system": "tetragonal",
        "hall": "I 4bw 2bw"
    },
    "dielectric": {
        "epsilon_ionic": [
            [
                2.84513317,
                1e-08,
                0.0
            ],
            [
                1e-08,
                2.84521399,
                0.0
            ],
            [
                0.0,
                0.0,
                2.65579238
            ]
        ],
        "epsilon_ionic_avg": 2.782046513333333,
        "epsilon_ionic_eig": [
            2.8451331699987628,
            2.845213990001237,
            2.65579238
        ],
        "epsilon_electronic": [
            [
                4.93773087,
                -0.0,
                0.0
            ],
            [
                0.0,
                4.93773087,
                0.0
            ],
            [
                0.0,
                0.0,
                7.68830902
            ]
        ],
        "epsilon_electronic_avg": 5.854590253333334,
        "epsilon_electronic_eig": [
            4.93773087,
            4.93773087,
            7.68830902
        ]
    },
    "phonon": {
        "lowest_freq": -0.02434971611369305,
        "frequency": [
            -0.02434971611369305,
            -0.008370141399565508,
            -0.008370141399565508,
            4.417122852019127,
            4.417122852019127,
            5.685010581673145,
            7.309083010898527,
            7.464924410085758,
            7.464924410085758,
            8.181090274072465,
            8.181090274072465,
            11.077618032039211,
            12.723109090409597,
            12.989612022524785,
            13.397209383987322,
            13.397209383987322,
            14.904765440460949,
            16.046492952233752,
            16.046492952233752,
            16.182662578389913,
            18.476621197933493,
            18.826666796372283,
            18.826666796372283,
            19.587305587289794
        ]
    },
    "born_effective_charge": {
        "avg_abs_trace": 1.5227854166666668,
        "tensors": [
            [
                [
                    1.24736,
                    0.14862,
                    -5e-05
                ],
                [
                    0.1486,
                    1.24737,
                    -0.00012
                ],
                [
                    0.0,
                    0.0,
                    0.99245
                ]
            ],
            [
                [
                    1.24736,
                    -0.14862,
                    5e-05
                ],
                [
                    -0.1486,
                    1.24737,
                    0.00012
                ],
                [
                    0.0,
                    0.0,
                    0.99245
                ]
            ],
            [
                [
                    1.2945,
                    -1.3976,
                    0.00012
                ],
                [
                    -1.39764,
                    1.29468,
                    0.00011
                ],
                [
                    0.0,
                    0.0,
                    3.06035
                ]
            ],
            [
                [
                    1.2945,
                    1.3976,
                    -0.00012
                ],
                [
                    1.39764,
                    1.29468,
                    -0.00011
                ],
                [
                    0.0,
                    0.0,
                    3.06035
                ]
            ],
            [
                [
                    -1.23719,
                    8e-05,
                    0.81555
                ],
                [
                    0.0,
                    -1.30453,
                    0.0
                ],
                [
                    0.99742,
                    5e-05,
                    -2.0264
                ]
            ],
            [
                [
                    -1.23719,
                    -8e-05,
                    -0.81555
                ],
                [
                    -0.0,
                    -1.30496,
                    0.0
                ],
                [
                    -0.99742,
                    -5e-05,
                    -2.0264
                ]
            ],
            [
                [
                    -1.30463,
                    -0.0,
                    0.0
                ],
                [
                    6e-05,
                    -1.23731,
                    0.81548
                ],
                [
                    -5e-05,
                    0.99742,
                    -2.0264
                ]
            ],
            [
                [
                    -1.30471,
                    0.0,
                    0.0
                ],
                [
                    -6e-05,
                    -1.23731,
                    -0.81548
                ],
                [
                    5e-05,
                    -0.99742,
                    -2.0264
                ]
            ]
        ]
    },
    "band_gap": 1.8807999999999998,
    "is_direct": false,
    "formula": "LiAuO2"
}