{
    "mp_id": "mp-971",
    "nelements": 2,
    "nsites": 3,
    "elements": [
        "K",
        "O"
    ],
    "structure": {
        "@module": "pymatgen.core.structure",
        "@class": "Structure",
        "charge": null,
        "lattice": {
            "matrix": [
                [
                    0.0,
                    3.20925338,
                    3.20925338
                ],
                [
                    3.20925338,
                    0.0,
                    3.20925338
                ],
                [
                    3.20925338,
                    3.20925338,
                    0.0
                ]
            ],
            "a": 4.538569655087696,
            "b": 4.538569655087696,
            "c": 4.538569655087696,
            "alpha": 60.00000000000001,
            "beta": 60.00000000000001,
            "gamma": 60.00000000000001,
            "volume": 66.10617325263743
        },
        "sites": [
            {
                "species": [
                    {
                        "element": "K",
                        "occu": 1
                    }
                ],
                "abc": [
                    0.25,
                    0.25,
                    0.25
                ],
                "xyz": [
                    1.60462669,
                    1.60462669,
                    1.60462669
                ],
                "label": "K",
                "properties": {}
            },
            {
                "species": [
                    {
                        "element": "K",
                        "occu": 1
                    }
                ],
                "abc": [
                    0.75,
                    0.75,
                    0.75
                ],
                "xyz": [
                    4.81388007,
                    4.81388007,
                    4.81388007
                ],
                "label": "K",
                "properties": {}
            },
            {
                "species": [
                    {
                        "element": "O",
                        "occu": 1
                    }
                ],
                "abc": [
                    0.0,
                    0.0,
                    0.0
                ],
                "xyz": [
                    0.0,
                    0.0,
                    0.0
                ],
                "label": "O",
                "properties": {}
            }
        ]
    },
    "spacegroup": {
        "source": "spglib",
        "symbol": "Fm-3m",
        "number": 225,
        "point_group": "m-3m",
        "crystal_system": "cubic",
        "hall": "-F 4 2 3"
    },
    "dielectric": {
        "epsilon_ionic": [
            [
                5.0138464,
                -0.0,
                -0.0
            ],
            [
                -0.0,
                5.01390248,
                0.0
            ],
            [
                -0.0,
                0.0,
                5.01351189
            ]
        ],
        "epsilon_ionic_avg": 5.01375359,
        "epsilon_ionic_eig": [
            5.0138464,
            5.01390248,
            5.01351189
        ],
        "epsilon_electronic": [
            [
                3.22368276,
                0.0,
                0.0
            ],
            [
                -0.0,
                3.22368276,
                0.0
            ],
            [
                0.0,
                -0.0,
                3.22368276
            ]
        ],
        "epsilon_electronic_avg": 3.2236827600000004,
        "epsilon_electronic_eig": [
            3.22368276,
            3.22368276,
            3.22368276
        ]
    },
    "phonon": {
        "lowest_freq": -0.005387160015848388,
        "frequency": [
            -0.005387160015848388,
            -0.005387160015848388,
            -0.005387160015848388,
            4.729886331891834,
            4.729886331891834,
            4.729886331891834,
            6.299456567477376,
            6.299456567477376,
            6.299456567477376
        ]
    },
    "born_effective_charge": {
        "avg_abs_trace": 1.3254966666666668,
        "tensors": [
            [
                [
                    0.99413,
                    -0.0,
                    -0.0
                ],
                [
                    -0.0,
                    0.99414,
                    -0.0
                ],
                [
                    -0.0,
                    -0.0,
                    0.9941
                ]
            ],
            [
                [
                    0.99413,
                    0.0,
                    0.0
                ],
                [
                    0.0,
                    0.99414,
                    0.0
                ],
                [
                    0.0,
                    0.0,
                    0.9941
                ]
            ],
            [
                [
                    -1.98826,
                    0.0,
                    0.0
                ],
                [
                    0.0,
                    -1.98827,
                    0.0
                ],
                [
                    -0.0,
                    0.0,
                    -1.9882
                ]
            ]
        ]
    },
    "band_gap": 1.7210999999999999,
    "is_direct": false,
    "formula": "K2O"
}