{
    "mp_id": "mp-983061",
    "nelements": 3,
    "nsites": 18,
    "elements": [
        "As",
        "O",
        "Sr"
    ],
    "structure": {
        "@module": "pymatgen.core.structure",
        "@class": "Structure",
        "charge": null,
        "lattice": {
            "matrix": [
                [
                    4.89836855,
                    0.0,
                    0.0
                ],
                [
                    -2.44918478,
                    4.24211191,
                    0.0
                ],
                [
                    0.0,
                    0.0,
                    10.87423019
                ]
            ],
            "a": 4.89836855,
            "b": 4.8983690697565345,
            "c": 10.87423019,
            "alpha": 90.0,
            "beta": 90.0,
            "gamma": 120.00000331071901,
            "volume": 225.96027856394397
        },
        "sites": [
            {
                "species": [
                    {
                        "element": "Sr",
                        "occu": 1
                    }
                ],
                "abc": [
                    0.0,
                    0.0,
                    0.25
                ],
                "xyz": [
                    0.0,
                    0.0,
                    2.7185575475
                ],
                "label": "Sr",
                "properties": {}
            },
            {
                "species": [
                    {
                        "element": "Sr",
                        "occu": 1
                    }
                ],
                "abc": [
                    0.0,
                    0.0,
                    0.75
                ],
                "xyz": [
                    0.0,
                    0.0,
                    8.1556726425
                ],
                "label": "Sr",
                "properties": {}
            },
            {
                "species": [
                    {
                        "element": "As",
                        "occu": 1
                    }
                ],
                "abc": [
                    0.666667,
                    0.333333,
                    0.0
                ],
                "xyz": [
                    2.44918655585111,
                    1.41403588929603,
                    0.0
                ],
                "label": "As",
                "properties": {}
            },
            {
                "species": [
                    {
                        "element": "As",
                        "occu": 1
                    }
                ],
                "abc": [
                    0.333333,
                    0.666667,
                    0.0
                ],
                "xyz": [
                    -2.7858511100209427e-06,
                    2.8280760207039704,
                    0.0
                ],
                "label": "As",
                "properties": {}
            },
            {
                "species": [
                    {
                        "element": "As",
                        "occu": 1
                    }
                ],
                "abc": [
                    0.666667,
                    0.333333,
                    0.5
                ],
                "xyz": [
                    2.44918655585111,
                    1.41403588929603,
                    5.437115095
                ],
                "label": "As",
                "properties": {}
            },
            {
                "species": [
                    {
                        "element": "As",
                        "occu": 1
                    }
                ],
                "abc": [
                    0.333333,
                    0.666667,
                    0.5
                ],
                "xyz": [
                    -2.7858511100209427e-06,
                    2.8280760207039704,
                    5.437115095
                ],
                "label": "As",
                "properties": {}
            },
            {
                "species": [
                    {
                        "element": "O",
                        "occu": 1
                    }
                ],
                "abc": [
                    0.61759014,
                    0.61759014,
                    0.09666316
                ],
                "xyz": [
                    1.5125917474000277,
                    2.6198864883925674,
                    1.0511374527328003
                ],
                "label": "O",
                "properties": {}
            },
            {
                "species": [
                    {
                        "element": "O",
                        "occu": 1
                    }
                ],
                "abc": [
                    0.38240986,
                    0.0,
                    0.09666316
                ],
                "xyz": [
                    1.8731844314339028,
                    0.0,
                    1.0511374527328003
                ],
                "label": "O",
                "properties": {}
            },
            {
                "species": [
                    {
                        "element": "O",
                        "occu": 1
                    }
                ],
                "abc": [
                    0.0,
                    0.38240986,
                    0.09666316
                ],
                "xyz": [
                    -0.9365924088339308,
                    1.6222254216074325,
                    1.0511374527328003
                ],
                "label": "O",
                "properties": {}
            },
            {
                "species": [
                    {
                        "element": "O",
                        "occu": 1
                    }
                ],
                "abc": [
                    0.61759014,
                    0.61759014,
                    0.40333684
                ],
                "xyz": [
                    1.5125917474000277,
                    2.6198864883925674,
                    4.3859776422672
                ],
                "label": "O",
                "properties": {}
            },
            {
                "species": [
                    {
                        "element": "O",
                        "occu": 1
                    }
                ],
                "abc": [
                    0.38240986,
                    0.0,
                    0.40333684
                ],
                "xyz": [
                    1.8731844314339028,
                    0.0,
                    4.3859776422672
                ],
                "label": "O",
                "properties": {}
            },
            {
                "species": [
                    {
                        "element": "O",
                        "occu": 1
                    }
                ],
                "abc": [
                    0.0,
                    0.38240986,
                    0.40333684
                ],
                "xyz": [
                    -0.9365924088339308,
                    1.6222254216074325,
                    4.3859776422672
                ],
                "label": "O",
                "properties": {}
            },
            {
                "species": [
                    {
                        "element": "O",
                        "occu": 1
                    }
                ],
                "abc": [
                    0.61759014,
                    0.0,
                    0.59666316
                ],
                "xyz": [
                    3.025184118566097,
                    0.0,
                    6.488252547732801
                ],
                "label": "O",
                "properties": {}
            },
            {
                "species": [
                    {
                        "element": "O",
                        "occu": 1
                    }
                ],
                "abc": [
                    0.38240986,
                    0.38240986,
                    0.59666316
                ],
                "xyz": [
                    0.936592022599972,
                    1.6222254216074325,
                    6.488252547732801
                ],
                "label": "O",
                "properties": {}
            },
            {
                "species": [
                    {
                        "element": "O",
                        "occu": 1
                    }
                ],
                "abc": [
                    0.0,
                    0.61759014,
                    0.59666316
                ],
                "xyz": [
                    -1.5125923711660691,
                    2.6198864883925674,
                    6.488252547732801
                ],
                "label": "O",
                "properties": {}
            },
            {
                "species": [
                    {
                        "element": "O",
                        "occu": 1
                    }
                ],
                "abc": [
                    0.38240986,
                    0.38240986,
                    0.90333684
                ],
                "xyz": [
                    0.936592022599972,
                    1.6222254216074325,
                    9.823092737267201
                ],
                "label": "O",
                "properties": {}
            },
            {
                "species": [
                    {
                        "element": "O",
                        "occu": 1
                    }
                ],
                "abc": [
                    0.61759014,
                    0.0,
                    0.90333684
                ],
                "xyz": [
                    3.025184118566097,
                    0.0,
                    9.823092737267201
                ],
                "label": "O",
                "properties": {}
            },
            {
                "species": [
                    {
                        "element": "O",
                        "occu": 1
                    }
                ],
                "abc": [
                    0.0,
                    0.61759014,
                    0.90333684
                ],
                "xyz": [
                    -1.5125923711660691,
                    2.6198864883925674,
                    9.823092737267201
                ],
                "label": "O",
                "properties": {}
            }
        ]
    },
    "spacegroup": {
        "source": "spglib",
        "symbol": "P6_3/mcm",
        "number": 193,
        "point_group": "6/mmm",
        "crystal_system": "hexagonal",
        "hall": "-P 6c 2"
    },
    "dielectric": {
        "epsilon_ionic": [
            [
                6.80720035,
                -4.3e-07,
                0.0
            ],
            [
                -4.3e-07,
                6.80676396,
                0.0
            ],
            [
                0.0,
                0.0,
                4.18865025
            ]
        ],
        "epsilon_ionic_avg": 5.934204853333334,
        "epsilon_ionic_eig": [
            6.807200350423702,
            6.806763959576297,
            4.18865025
        ],
        "epsilon_electronic": [
            [
                3.7365654,
                4.4e-07,
                0.0
            ],
            [
                4.4e-07,
                3.73656542,
                0.0
            ],
            [
                0.0,
                0.0,
                3.09774961
            ]
        ],
        "epsilon_electronic_avg": 3.5236268099999997,
        "epsilon_electronic_eig": [
            3.7365649698863783,
            3.7365658501136214,
            3.09774961
        ]
    },
    "phonon": {
        "lowest_freq": -0.04010544674443578,
        "frequency": [
            -0.04010544674443578,
            -0.01426350469886904,
            -0.014263503019673444,
            1.9932133525888456,
            1.993213591690308,
            3.356537772827934,
            3.5048196898390365,
            3.504820101261255,
            4.16234268343206,
            4.162343170782844,
            4.801226590196836,
            6.057532804103809,
            6.203097100360422,
            6.271935143437463,
            7.146733907051139,
            7.1467343345193495,
            7.362073876772967,
            7.362074308336364,
            9.457818694330715,
            9.529862044396163,
            10.088815345302708,
            10.088815926699313,
            10.130139463823378,
            10.251719096631371,
            10.25171972838915,
            10.335092783928394,
            11.936013218167068,
            11.936014497908229,
            12.010931690664032,
            12.010932931900568,
            14.830053472154079,
            14.830054123116328,
            15.065118569324328,
            15.06511918579507,
            15.473201937995482,
            15.473202854108852,
            15.760103260314942,
            15.760104113228572,
            17.39107918326577,
            17.391079253531718,
            17.44700849516576,
            17.44700849516576,
            18.62508881798962,
            18.70816276489365,
            19.73981287315179,
            20.166440826434958,
            20.21655813610278,
            21.376225773591717,
            21.435384194398708,
            21.599601940261067,
            21.599602053411363,
            21.658552625533726,
            21.658552738376045,
            22.7764153759022
        ]
    },
    "born_effective_charge": {
        "avg_abs_trace": 2.4331746296296295,
        "tensors": [
            [
                [
                    2.31829,
                    -0.0,
                    0.0
                ],
                [
                    7e-05,
                    2.31839,
                    0.0
                ],
                [
                    -0.0,
                    -0.0,
                    3.38202
                ]
            ],
            [
                [
                    2.31846,
                    -0.0,
                    0.0
                ],
                [
                    -7e-05,
                    2.31839,
                    0.0
                ],
                [
                    -0.0,
                    -0.0,
                    3.38202
                ]
            ],
            [
                [
                    4.85301,
                    4e-05,
                    -0.00017
                ],
                [
                    0.0,
                    4.85272,
                    0.0
                ],
                [
                    -0.0,
                    -0.0,
                    2.70883
                ]
            ],
            [
                [
                    4.85301,
                    -4e-05,
                    -0.00017
                ],
                [
                    0.0,
                    4.85267,
                    0.0
                ],
                [
                    -0.0,
                    -0.0,
                    2.70883
                ]
            ],
            [
                [
                    4.85301,
                    4e-05,
                    0.00017
                ],
                [
                    0.0,
                    4.85272,
                    0.0
                ],
                [
                    -0.0,
                    -0.0,
                    2.70883
                ]
            ],
            [
                [
                    4.85301,
                    -4e-05,
                    0.00017
                ],
                [
                    0.0,
                    4.85267,
                    0.0
                ],
                [
                    -0.0,
                    -0.0,
                    2.70883
                ]
            ],
            [
                [
                    -2.20961,
                    0.35586,
                    -0.15766
                ],
                [
                    0.3559,
                    -1.7985,
                    -0.27328
                ],
                [
                    -0.2043,
                    -0.35386,
                    -1.46659
                ]
            ],
            [
                [
                    -1.59326,
                    -0.0,
                    0.31567
                ],
                [
                    0.00027,
                    -2.41506,
                    5e-05
                ],
                [
                    0.4086,
                    -0.0,
                    -1.46659
                ]
            ],
            [
                [
                    -2.20961,
                    -0.35586,
                    -0.15766
                ],
                [
                    -0.35607,
                    -1.79832,
                    0.27325
                ],
                [
                    -0.2043,
                    0.35386,
                    -1.46659
                ]
            ],
            [
                [
                    -2.20961,
                    0.35586,
                    0.15766
                ],
                [
                    0.3559,
                    -1.7985,
                    0.27328
                ],
                [
                    0.2043,
                    0.35386,
                    -1.46664
                ]
            ],
            [
                [
                    -1.59326,
                    -0.0,
                    -0.31567
                ],
                [
                    0.00027,
                    -2.41506,
                    -5e-05
                ],
                [
                    -0.4086,
                    -0.0,
                    -1.46664
                ]
            ],
            [
                [
                    -2.20961,
                    -0.35586,
                    0.15766
                ],
                [
                    -0.35607,
                    -1.79832,
                    -0.27325
                ],
                [
                    0.2043,
                    -0.35386,
                    -1.46664
                ]
            ],
            [
                [
                    -1.59289,
                    -0.0,
                    -0.31583
                ],
                [
                    -0.00027,
                    -2.41506,
                    5e-05
                ],
                [
                    -0.4086,
                    -0.0,
                    -1.46659
                ]
            ],
            [
                [
                    -2.20952,
                    0.35619,
                    0.15779
                ],
                [
                    0.35607,
                    -1.79832,
                    0.27325
                ],
                [
                    0.2043,
                    0.35386,
                    -1.46659
                ]
            ],
            [
                [
                    -2.20952,
                    -0.35619,
                    0.15779
                ],
                [
                    -0.3559,
                    -1.7985,
                    -0.27328
                ],
                [
                    0.2043,
                    -0.35386,
                    -1.46659
                ]
            ],
            [
                [
                    -2.20952,
                    0.35619,
                    -0.15779
                ],
                [
                    0.35607,
                    -1.79832,
                    -0.27325
                ],
                [
                    -0.2043,
                    -0.35386,
                    -1.46664
                ]
            ],
            [
                [
                    -1.59289,
                    -0.0,
                    0.31583
                ],
                [
                    -0.00027,
                    -2.41506,
                    -5e-05
                ],
                [
                    0.4086,
                    -0.0,
                    -1.46664
                ]
            ],
            [
                [
                    -2.20952,
                    -0.35619,
                    -0.15779
                ],
                [
                    -0.3559,
                    -1.7985,
                    0.27328
                ],
                [
                    -0.2043,
                    0.35386,
                    -1.46664
                ]
            ]
        ]
    },
    "band_gap": 3.4878,
    "is_direct": false,
    "formula": "Sr(AsO3)2"
}