{
    "mp_id": "mp-9113",
    "nelements": 4,
    "nsites": 28,
    "elements": [
        "As",
        "Be",
        "Cs",
        "O"
    ],
    "structure": {
        "@module": "pymatgen.core.structure",
        "@class": "Structure",
        "charge": null,
        "lattice": {
            "matrix": [
                [
                    9.41667116,
                    0.0,
                    0.0
                ],
                [
                    0.0,
                    8.85662033,
                    0.0
                ],
                [
                    0.0,
                    0.0,
                    5.15800527
                ]
            ],
            "a": 9.41667116,
            "b": 8.85662033,
            "c": 5.15800527,
            "alpha": 90.0,
            "beta": 90.0,
            "gamma": 90.0,
            "volume": 430.1770269356573
        },
        "sites": [
            {
                "species": [
                    {
                        "element": "Cs",
                        "occu": 1
                    }
                ],
                "abc": [
                    0.49416429,
                    0.31451178,
                    0.49815019
                ],
                "xyz": [
                    4.653382617944876,
                    2.7855114247724875,
                    2.5694613052715014
                ],
                "label": "Cs",
                "properties": {}
            },
            {
                "species": [
                    {
                        "element": "Cs",
                        "occu": 1
                    }
                ],
                "abc": [
                    0.50583571,
                    0.68548822,
                    0.99815019
                ],
                "xyz": [
                    4.763288542055124,
                    6.071108905227512,
                    5.148463940271502
                ],
                "label": "Cs",
                "properties": {}
            },
            {
                "species": [
                    {
                        "element": "Cs",
                        "occu": 1
                    }
                ],
                "abc": [
                    0.99416429,
                    0.18548822,
                    0.49815019
                ],
                "xyz": [
                    9.361718197944876,
                    1.6427987402275126,
                    2.5694613052715014
                ],
                "label": "Cs",
                "properties": {}
            },
            {
                "species": [
                    {
                        "element": "Cs",
                        "occu": 1
                    }
                ],
                "abc": [
                    0.00583571,
                    0.81451178,
                    0.99815019
                ],
                "xyz": [
                    0.0549529620551236,
                    7.213821589772488,
                    5.148463940271502
                ],
                "label": "Cs",
                "properties": {}
            },
            {
                "species": [
                    {
                        "element": "Be",
                        "occu": 1
                    }
                ],
                "abc": [
                    0.32846376,
                    0.09517941,
                    0.99833204
                ],
                "xyz": [
                    3.0930352158971615,
                    0.8429678976034054,
                    5.149401923529851
                ],
                "label": "Be",
                "properties": {}
            },
            {
                "species": [
                    {
                        "element": "Be",
                        "occu": 1
                    }
                ],
                "abc": [
                    0.17153624,
                    0.59517941,
                    0.49833204
                ],
                "xyz": [
                    1.6153003641028385,
                    5.271278062603405,
                    2.570399288529851
                ],
                "label": "Be",
                "properties": {}
            },
            {
                "species": [
                    {
                        "element": "Be",
                        "occu": 1
                    }
                ],
                "abc": [
                    0.82846376,
                    0.40482059,
                    0.99833204
                ],
                "xyz": [
                    7.801370795897162,
                    3.5853422673965945,
                    5.149401923529851
                ],
                "label": "Be",
                "properties": {}
            },
            {
                "species": [
                    {
                        "element": "Be",
                        "occu": 1
                    }
                ],
                "abc": [
                    0.67153624,
                    0.90482059,
                    0.49833204
                ],
                "xyz": [
                    6.323635944102838,
                    8.013652432396595,
                    2.570399288529851
                ],
                "label": "Be",
                "properties": {}
            },
            {
                "species": [
                    {
                        "element": "As",
                        "occu": 1
                    }
                ],
                "abc": [
                    0.32494391,
                    0.91454138,
                    0.49996353
                ],
                "xyz": [
                    3.0598899459146356,
                    8.099745778734254,
                    2.578814522547803
                ],
                "label": "As",
                "properties": {}
            },
            {
                "species": [
                    {
                        "element": "As",
                        "occu": 1
                    }
                ],
                "abc": [
                    0.67505609,
                    0.08545862,
                    0.99996353
                ],
                "xyz": [
                    6.356781214085364,
                    0.7568745512657447,
                    5.157817157547804
                ],
                "label": "As",
                "properties": {}
            },
            {
                "species": [
                    {
                        "element": "As",
                        "occu": 1
                    }
                ],
                "abc": [
                    0.82494391,
                    0.58545862,
                    0.49996353
                ],
                "xyz": [
                    7.7682255259146356,
                    5.185184716265745,
                    2.578814522547803
                ],
                "label": "As",
                "properties": {}
            },
            {
                "species": [
                    {
                        "element": "As",
                        "occu": 1
                    }
                ],
                "abc": [
                    0.17505609,
                    0.41454138,
                    0.99996353
                ],
                "xyz": [
                    1.6484456340853644,
                    3.6714356137342556,
                    5.157817157547804
                ],
                "label": "As",
                "properties": {}
            },
            {
                "species": [
                    {
                        "element": "O",
                        "occu": 1
                    }
                ],
                "abc": [
                    0.49888174,
                    0.12419366,
                    0.01690006
                ],
                "xyz": [
                    4.697805293308619,
                    1.0999360940131078,
                    0.08717059854331621
                ],
                "label": "O",
                "properties": {}
            },
            {
                "species": [
                    {
                        "element": "O",
                        "occu": 1
                    }
                ],
                "abc": [
                    0.00111826,
                    0.62419366,
                    0.51690006
                ],
                "xyz": [
                    0.010530286691381601,
                    5.528246259013108,
                    2.6661732335433164
                ],
                "label": "O",
                "properties": {}
            },
            {
                "species": [
                    {
                        "element": "O",
                        "occu": 1
                    }
                ],
                "abc": [
                    0.99888174,
                    0.37580634,
                    0.01690006
                ],
                "xyz": [
                    9.406140873308617,
                    3.3283740709868925,
                    0.08717059854331621
                ],
                "label": "O",
                "properties": {}
            },
            {
                "species": [
                    {
                        "element": "O",
                        "occu": 1
                    }
                ],
                "abc": [
                    0.50111826,
                    0.87580634,
                    0.51690006
                ],
                "xyz": [
                    4.718865866691382,
                    7.756684235986892,
                    2.6661732335433164
                ],
                "label": "O",
                "properties": {}
            },
            {
                "species": [
                    {
                        "element": "O",
                        "occu": 1
                    }
                ],
                "abc": [
                    0.22581079,
                    0.45909566,
                    0.69120283
                ],
                "xyz": [
                    2.1263859538098164,
                    4.066035955770768,
                    3.5652278397789146
                ],
                "label": "O",
                "properties": {}
            },
            {
                "species": [
                    {
                        "element": "O",
                        "occu": 1
                    }
                ],
                "abc": [
                    0.77418921,
                    0.54090434,
                    0.19120283
                ],
                "xyz": [
                    7.290285206190183,
                    4.7905843742292324,
                    0.9862252047789141
                ],
                "label": "O",
                "properties": {}
            },
            {
                "species": [
                    {
                        "element": "O",
                        "occu": 1
                    }
                ],
                "abc": [
                    0.72581079,
                    0.04090434,
                    0.69120283
                ],
                "xyz": [
                    6.834721533809817,
                    0.3622742092292322,
                    3.5652278397789146
                ],
                "label": "O",
                "properties": {}
            },
            {
                "species": [
                    {
                        "element": "O",
                        "occu": 1
                    }
                ],
                "abc": [
                    0.27418921,
                    0.95909566,
                    0.19120283
                ],
                "xyz": [
                    2.5819496261901835,
                    8.494346120770768,
                    0.9862252047789141
                ],
                "label": "O",
                "properties": {}
            },
            {
                "species": [
                    {
                        "element": "O",
                        "occu": 1
                    }
                ],
                "abc": [
                    0.24075637,
                    0.75474459,
                    0.59819995
                ],
                "xyz": [
                    2.267123565965289,
                    6.684486279751515,
                    3.085518494613737
                ],
                "label": "O",
                "properties": {}
            },
            {
                "species": [
                    {
                        "element": "O",
                        "occu": 1
                    }
                ],
                "abc": [
                    0.75924363,
                    0.24525541,
                    0.09819995
                ],
                "xyz": [
                    7.14954759403471,
                    2.1721340502484856,
                    0.5065158596137365
                ],
                "label": "O",
                "properties": {}
            },
            {
                "species": [
                    {
                        "element": "O",
                        "occu": 1
                    }
                ],
                "abc": [
                    0.74075637,
                    0.74525541,
                    0.59819995
                ],
                "xyz": [
                    6.9754591459652895,
                    6.600444215248485,
                    3.085518494613737
                ],
                "label": "O",
                "properties": {}
            },
            {
                "species": [
                    {
                        "element": "O",
                        "occu": 1
                    }
                ],
                "abc": [
                    0.25924363,
                    0.25474459,
                    0.09819995
                ],
                "xyz": [
                    2.441212014034711,
                    2.2561761147515145,
                    0.5065158596137365
                ],
                "label": "O",
                "properties": {}
            },
            {
                "species": [
                    {
                        "element": "O",
                        "occu": 1
                    }
                ],
                "abc": [
                    0.77552845,
                    0.44178687,
                    0.7032514
                ],
                "xyz": [
                    7.302896388874502,
                    3.912738574369067,
                    3.6273744273348782
                ],
                "label": "O",
                "properties": {}
            },
            {
                "species": [
                    {
                        "element": "O",
                        "occu": 1
                    }
                ],
                "abc": [
                    0.22447155,
                    0.55821313,
                    0.2032514
                ],
                "xyz": [
                    2.113774771125498,
                    4.943881755630932,
                    1.048371792334878
                ],
                "label": "O",
                "properties": {}
            },
            {
                "species": [
                    {
                        "element": "O",
                        "occu": 1
                    }
                ],
                "abc": [
                    0.27552845,
                    0.05821313,
                    0.7032514
                ],
                "xyz": [
                    2.5945608088745016,
                    0.5155715906309329,
                    3.6273744273348782
                ],
                "label": "O",
                "properties": {}
            },
            {
                "species": [
                    {
                        "element": "O",
                        "occu": 1
                    }
                ],
                "abc": [
                    0.72447155,
                    0.94178687,
                    0.2032514
                ],
                "xyz": [
                    6.822110351125498,
                    8.341048739369068,
                    1.048371792334878
                ],
                "label": "O",
                "properties": {}
            }
        ]
    },
    "spacegroup": {
        "source": "spglib",
        "symbol": "Pna2_1",
        "number": 33,
        "point_group": "mm2",
        "crystal_system": "orthorhombic",
        "hall": "P 2c -2n"
    },
    "dielectric": {
        "epsilon_ionic": [
            [
                4.46371418,
                0.0,
                9e-08
            ],
            [
                0.0,
                3.93179999,
                -1.9e-07
            ],
            [
                9e-08,
                -1.9e-07,
                3.85546394
            ]
        ],
        "epsilon_ionic_avg": 4.08365937,
        "epsilon_ionic_eig": [
            4.463714180000014,
            3.8554639399995123,
            3.931799990000473
        ],
        "epsilon_electronic": [
            [
                2.96635723,
                0.0,
                0.0
            ],
            [
                0.0,
                2.9475201,
                0.0
            ],
            [
                0.0,
                0.0,
                2.98460074
            ]
        ],
        "epsilon_electronic_avg": 2.9661593566666666,
        "epsilon_electronic_eig": [
            2.96635723,
            2.9475201,
            2.98460074
        ]
    },
    "phonon": {
        "lowest_freq": -0.1493525233206172,
        "frequency": [
            -0.1493525233206172,
            -0.06896326770364684,
            -0.05695084572065941,
            0.6979935083445719,
            1.2922203757334485,
            1.464185150425637,
            1.6029825967695488,
            1.6159044222331524,
            1.7137110277615366,
            1.9207942245740945,
            2.035849638611206,
            2.1325487079138155,
            2.330666703807299,
            2.439469605730812,
            2.473564747671109,
            2.5255215246897693,
            2.613681061825272,
            2.6301268708406207,
            2.9790204461044625,
            3.170047441745271,
            3.294691762289935,
            3.4486368289177673,
            4.231062296719709,
            4.60109957588114,
            5.017428234437248,
            5.336060516120623,
            5.429849206033854,
            5.534738673894418,
            6.1323931992251195,
            6.225422771355268,
            6.359126991318101,
            7.119969077240537,
            7.245199207297616,
            7.616568800405699,
            7.852780592314459,
            8.010361645096335,
            8.147258507539062,
            8.274493024749276,
            8.523334043527946,
            9.039560768340914,
            9.445968671214864,
            9.57107993635953,
            9.811962750158834,
            9.893140192510934,
            10.468633613663414,
            10.818942303938707,
            10.889424364011195,
            11.370681238264236,
            11.662756163404948,
            11.781362766195116,
            12.05359761810191,
            12.221307876292288,
            12.268339521584988,
            12.450089520766971,
            13.298578600456514,
            13.535028117885664,
            18.432090946719093,
            18.51972007254291,
            18.896706375196697,
            18.919802768529937,
            19.421508985247225,
            19.44034871841917,
            19.751759967981567,
            20.10381902241555,
            20.251804030195,
            20.406493909427105,
            20.51554993060872,
            20.97013002344677,
            24.230439320357544,
            24.237332457124573,
            24.244855890875606,
            24.255212243710066,
            24.70832975362363,
            24.855916639934502,
            25.38493616504837,
            25.447947723657144,
            25.450939361914894,
            27.116696249558714,
            27.278747827107452,
            27.70765540050213,
            27.76189821454819,
            28.260784039303072,
            29.18128847397564,
            29.437944905370884
        ]
    },
    "born_effective_charge": {
        "avg_abs_trace": 1.9680395238095236,
        "tensors": [
            [
                [
                    1.56819,
                    -0.0264,
                    0.01031
                ],
                [
                    0.04532,
                    1.18603,
                    0.04953
                ],
                [
                    -0.00176,
                    0.05938,
                    1.33943
                ]
            ],
            [
                [
                    1.56819,
                    -0.0264,
                    -0.01031
                ],
                [
                    0.04532,
                    1.18603,
                    -0.04953
                ],
                [
                    0.00176,
                    -0.05938,
                    1.33943
                ]
            ],
            [
                [
                    1.56819,
                    0.0264,
                    0.01031
                ],
                [
                    -0.04532,
                    1.18603,
                    -0.04953
                ],
                [
                    -0.00176,
                    -0.05938,
                    1.33943
                ]
            ],
            [
                [
                    1.56819,
                    0.0264,
                    -0.01031
                ],
                [
                    -0.04532,
                    1.18603,
                    0.04953
                ],
                [
                    0.00176,
                    0.05938,
                    1.33943
                ]
            ],
            [
                [
                    2.15878,
                    -0.18035,
                    -0.08577
                ],
                [
                    -0.02047,
                    2.15145,
                    0.3627
                ],
                [
                    -0.00463,
                    -0.35803,
                    2.15236
                ]
            ],
            [
                [
                    2.15878,
                    0.18035,
                    0.08577
                ],
                [
                    0.02047,
                    2.15145,
                    0.3627
                ],
                [
                    0.00463,
                    -0.35803,
                    2.15236
                ]
            ],
            [
                [
                    2.15878,
                    0.18035,
                    -0.08577
                ],
                [
                    0.02047,
                    2.15145,
                    -0.3627
                ],
                [
                    -0.00463,
                    0.35803,
                    2.15236
                ]
            ],
            [
                [
                    2.15878,
                    -0.18035,
                    0.08577
                ],
                [
                    -0.02047,
                    2.15145,
                    -0.3627
                ],
                [
                    0.00463,
                    0.35803,
                    2.15236
                ]
            ],
            [
                [
                    3.34224,
                    0.33085,
                    -0.07175
                ],
                [
                    0.14105,
                    3.37428,
                    -0.11946
                ],
                [
                    -0.0005,
                    0.09134,
                    3.39165
                ]
            ],
            [
                [
                    3.34224,
                    0.33085,
                    0.07175
                ],
                [
                    0.14105,
                    3.37428,
                    0.11946
                ],
                [
                    0.0005,
                    -0.09134,
                    3.39165
                ]
            ],
            [
                [
                    3.34224,
                    -0.33085,
                    -0.07175
                ],
                [
                    -0.14105,
                    3.37428,
                    0.11946
                ],
                [
                    -0.0005,
                    -0.09134,
                    3.39165
                ]
            ],
            [
                [
                    3.34224,
                    -0.33085,
                    0.07175
                ],
                [
                    -0.14105,
                    3.37428,
                    -0.11946
                ],
                [
                    0.0005,
                    0.09134,
                    3.39165
                ]
            ],
            [
                [
                    -2.76441,
                    0.00054,
                    0.00365
                ],
                [
                    0.03405,
                    -1.16214,
                    -0.05184
                ],
                [
                    0.02537,
                    0.00697,
                    -1.34395
                ]
            ],
            [
                [
                    -2.76441,
                    -0.00054,
                    -0.00365
                ],
                [
                    -0.03405,
                    -1.16214,
                    -0.05184
                ],
                [
                    -0.02537,
                    0.00697,
                    -1.34395
                ]
            ],
            [
                [
                    -2.76441,
                    -0.00054,
                    0.00365
                ],
                [
                    -0.03405,
                    -1.16214,
                    0.05184
                ],
                [
                    0.02537,
                    -0.00697,
                    -1.34395
                ]
            ],
            [
                [
                    -2.76441,
                    0.00054,
                    -0.00365
                ],
                [
                    0.03405,
                    -1.16214,
                    0.05184
                ],
                [
                    -0.02537,
                    -0.00697,
                    -1.34395
                ]
            ],
            [
                [
                    -1.36974,
                    0.11264,
                    0.09207
                ],
                [
                    0.08849,
                    -1.57568,
                    0.50305
                ],
                [
                    0.08091,
                    0.5947,
                    -2.13842
                ]
            ],
            [
                [
                    -1.36974,
                    0.11264,
                    -0.09207
                ],
                [
                    0.08849,
                    -1.57568,
                    -0.50305
                ],
                [
                    -0.08091,
                    -0.5947,
                    -2.13842
                ]
            ],
            [
                [
                    -1.36974,
                    -0.11264,
                    0.09207
                ],
                [
                    -0.08849,
                    -1.57568,
                    -0.50305
                ],
                [
                    0.08091,
                    -0.5947,
                    -2.13842
                ]
            ],
            [
                [
                    -1.36974,
                    -0.11264,
                    -0.09207
                ],
                [
                    -0.08849,
                    -1.57568,
                    0.50305
                ],
                [
                    -0.08091,
                    0.5947,
                    -2.13842
                ]
            ],
            [
                [
                    -1.59557,
                    -0.90825,
                    0.02268
                ],
                [
                    -0.70375,
                    -2.35124,
                    -0.09257
                ],
                [
                    0.08415,
                    0.04706,
                    -1.28265
                ]
            ],
            [
                [
                    -1.59557,
                    -0.90825,
                    -0.02268
                ],
                [
                    -0.70375,
                    -2.35124,
                    0.09257
                ],
                [
                    -0.08415,
                    -0.04706,
                    -1.28265
                ]
            ],
            [
                [
                    -1.59557,
                    0.90825,
                    0.02268
                ],
                [
                    0.70375,
                    -2.35124,
                    0.09257
                ],
                [
                    0.08415,
                    -0.04706,
                    -1.28265
                ]
            ],
            [
                [
                    -1.59557,
                    0.90825,
                    -0.02268
                ],
                [
                    0.70375,
                    -2.35124,
                    -0.09257
                ],
                [
                    -0.08415,
                    0.04706,
                    -1.28265
                ]
            ],
            [
                [
                    -1.33951,
                    -0.05428,
                    -0.03973
                ],
                [
                    -0.06095,
                    -1.6227,
                    0.59601
                ],
                [
                    -0.05241,
                    0.44632,
                    -2.11841
                ]
            ],
            [
                [
                    -1.33951,
                    -0.05428,
                    0.03973
                ],
                [
                    -0.06095,
                    -1.6227,
                    -0.59601
                ],
                [
                    0.05241,
                    -0.44632,
                    -2.11841
                ]
            ],
            [
                [
                    -1.33951,
                    0.05428,
                    -0.03973
                ],
                [
                    0.06095,
                    -1.6227,
                    -0.59601
                ],
                [
                    -0.05241,
                    -0.44632,
                    -2.11841
                ]
            ],
            [
                [
                    -1.33951,
                    0.05428,
                    0.03973
                ],
                [
                    0.06095,
                    -1.6227,
                    0.59601
                ],
                [
                    0.05241,
                    0.44632,
                    -2.11841
                ]
            ]
        ]
    },
    "band_gap": 3.992,
    "is_direct": true,
    "formula": "CsBeAsO4"
}