{
    "mp_id": "mp-997002",
    "nelements": 3,
    "nsites": 8,
    "elements": [
        "Au",
        "K",
        "O"
    ],
    "structure": {
        "@module": "pymatgen.core.structure",
        "@class": "Structure",
        "charge": null,
        "lattice": {
            "matrix": [
                [
                    2.19318847,
                    -5.977863,
                    0.0
                ],
                [
                    2.19318847,
                    5.977863,
                    0.0
                ],
                [
                    0.0,
                    0.0,
                    5.9645974
                ]
            ],
            "a": 6.36748943553972,
            "b": 6.36748943553972,
            "c": 5.9645974,
            "alpha": 90.0,
            "beta": 90.0,
            "gamma": 139.70533716098578,
            "volume": 156.398665228414
        },
        "sites": [
            {
                "species": [
                    {
                        "element": "K",
                        "occu": 1
                    }
                ],
                "abc": [
                    0.70304507,
                    0.29695493,
                    0.25
                ],
                "xyz": [
                    2.19318847,
                    -2.4275512225708202,
                    1.49114935
                ],
                "label": "K",
                "properties": {}
            },
            {
                "species": [
                    {
                        "element": "K",
                        "occu": 1
                    }
                ],
                "abc": [
                    0.29695493,
                    0.70304507,
                    0.75
                ],
                "xyz": [
                    2.19318847,
                    2.4275512225708202,
                    4.47344805
                ],
                "label": "K",
                "properties": {}
            },
            {
                "species": [
                    {
                        "element": "Au",
                        "occu": 1
                    }
                ],
                "abc": [
                    0.00261519,
                    0.99738481,
                    0.75
                ],
                "xyz": [
                    2.19318847,
                    5.94659650492206,
                    4.47344805
                ],
                "label": "Au",
                "properties": {}
            },
            {
                "species": [
                    {
                        "element": "Au",
                        "occu": 1
                    }
                ],
                "abc": [
                    0.99738481,
                    0.00261519,
                    0.25
                ],
                "xyz": [
                    2.19318847,
                    -5.94659650492206,
                    1.49114935
                ],
                "label": "Au",
                "properties": {}
            },
            {
                "species": [
                    {
                        "element": "O",
                        "occu": 1
                    }
                ],
                "abc": [
                    0.11110515,
                    0.88889485,
                    0.4949023
                ],
                "xyz": [
                    2.19318847,
                    4.6495202694110995,
                    2.95189297183402
                ],
                "label": "O",
                "properties": {}
            },
            {
                "species": [
                    {
                        "element": "O",
                        "occu": 1
                    }
                ],
                "abc": [
                    0.88889485,
                    0.11110515,
                    0.5050977
                ],
                "xyz": [
                    2.19318847,
                    -4.6495202694110995,
                    3.01270442816598
                ],
                "label": "O",
                "properties": {}
            },
            {
                "species": [
                    {
                        "element": "O",
                        "occu": 1
                    }
                ],
                "abc": [
                    0.88889485,
                    0.11110515,
                    0.9949023
                ],
                "xyz": [
                    2.19318847,
                    -4.6495202694110995,
                    5.93419167183402
                ],
                "label": "O",
                "properties": {}
            },
            {
                "species": [
                    {
                        "element": "O",
                        "occu": 1
                    }
                ],
                "abc": [
                    0.11110515,
                    0.88889485,
                    0.0050977
                ],
                "xyz": [
                    2.19318847,
                    4.6495202694110995,
                    0.03040572816598
                ],
                "label": "O",
                "properties": {}
            }
        ]
    },
    "spacegroup": {
        "source": "spglib",
        "symbol": "Cmcm",
        "number": 63,
        "point_group": "mmm",
        "crystal_system": "orthorhombic",
        "hall": "-C 2c 2"
    },
    "dielectric": {
        "epsilon_ionic": [
            [
                1.87811407,
                -0.0,
                0.0
            ],
            [
                -0.0,
                1.95989982,
                -1e-08
            ],
            [
                0.0,
                -1e-08,
                3.95573455
            ]
        ],
        "epsilon_ionic_avg": 2.5979161466666665,
        "epsilon_ionic_eig": [
            3.95573455,
            1.95989982,
            1.87811407
        ],
        "epsilon_electronic": [
            [
                2.36233633,
                0.0,
                0.0
            ],
            [
                0.0,
                2.96634269,
                0.0
            ],
            [
                0.0,
                -0.0,
                5.06692019
            ]
        ],
        "epsilon_electronic_avg": 3.465199736666667,
        "epsilon_electronic_eig": [
            2.36233633,
            2.96634269,
            5.06692019
        ]
    },
    "phonon": {
        "lowest_freq": -0.029526967738498954,
        "frequency": [
            -0.029526967738498954,
            -0.012078623731099134,
            -0.007947394614595699,
            2.6428188768407086,
            2.720794984714155,
            3.1614558948029297,
            3.177509050924105,
            3.428311883345277,
            3.9611534247770646,
            4.306192763473599,
            4.34560605978485,
            4.598765382224459,
            4.7946344990747285,
            7.5570607637203455,
            8.277021160799686,
            8.595754670942888,
            14.831885677666666,
            16.179782862198948,
            16.34555349271638,
            16.73353016552495,
            17.2532796840332,
            17.593951651951706,
            17.856496877610866,
            18.15932766401533
        ]
    },
    "born_effective_charge": {
        "avg_abs_trace": 1.581595,
        "tensors": [
            [
                [
                    1.14537,
                    3e-05,
                    0.0
                ],
                [
                    0.0,
                    1.49826,
                    0.0
                ],
                [
                    0.0,
                    -0.00011,
                    1.05415
                ]
            ],
            [
                [
                    1.14537,
                    -3e-05,
                    0.0
                ],
                [
                    0.0,
                    1.49821,
                    0.0
                ],
                [
                    -0.0,
                    0.00011,
                    1.05415
                ]
            ],
            [
                [
                    -0.00427,
                    0.0,
                    0.0
                ],
                [
                    0.0,
                    1.10219,
                    0.0
                ],
                [
                    0.0,
                    0.00016,
                    4.69398
                ]
            ],
            [
                [
                    -0.00427,
                    -0.0,
                    0.0
                ],
                [
                    0.0,
                    1.10202,
                    0.0
                ],
                [
                    0.0,
                    -0.00016,
                    4.69398
                ]
            ],
            [
                [
                    -0.57055,
                    -2e-05,
                    -6e-05
                ],
                [
                    0.0,
                    -1.30021,
                    -0.02307
                ],
                [
                    -0.0,
                    0.06565,
                    -2.87423
                ]
            ],
            [
                [
                    -0.57055,
                    2e-05,
                    6e-05
                ],
                [
                    0.0,
                    -1.30013,
                    -0.02335
                ],
                [
                    0.0,
                    0.06623,
                    -2.8739
                ]
            ],
            [
                [
                    -0.57055,
                    2e-05,
                    -6e-05
                ],
                [
                    0.0,
                    -1.30013,
                    0.02335
                ],
                [
                    -0.0,
                    -0.06565,
                    -2.87423
                ]
            ],
            [
                [
                    -0.57055,
                    -2e-05,
                    6e-05
                ],
                [
                    0.0,
                    -1.30021,
                    0.02307
                ],
                [
                    -0.0,
                    -0.06623,
                    -2.8739
                ]
            ]
        ]
    },
    "band_gap": 1.7604,
    "is_direct": false,
    "formula": "KAuO2"
}