{
    "mp_id": "mp-981511",
    "nelements": 3,
    "nsites": 22,
    "elements": [
        "O",
        "Sb",
        "Y"
    ],
    "structure": {
        "@module": "pymatgen.core.structure",
        "@class": "Structure",
        "charge": null,
        "lattice": {
            "matrix": [
                [
                    3.69293074,
                    -5.22745524,
                    0.0
                ],
                [
                    3.69293074,
                    5.22745524,
                    0.0
                ],
                [
                    0.0,
                    0.0,
                    7.4458338
                ]
            ],
            "a": 6.4003145029475235,
            "b": 6.4003145029475235,
            "c": 7.4458338,
            "alpha": 90.0,
            "beta": 90.0,
            "gamma": 109.52148388199723,
            "volume": 287.4781353015309
        },
        "sites": [
            {
                "species": [
                    {
                        "element": "Y",
                        "occu": 1
                    }
                ],
                "abc": [
                    0.5,
                    0.5,
                    0.0
                ],
                "xyz": [
                    3.69293074,
                    0.0,
                    0.0
                ],
                "label": "Y",
                "properties": {}
            },
            {
                "species": [
                    {
                        "element": "Y",
                        "occu": 1
                    }
                ],
                "abc": [
                    0.5,
                    0.5,
                    0.5
                ],
                "xyz": [
                    3.69293074,
                    0.0,
                    3.7229169
                ],
                "label": "Y",
                "properties": {}
            },
            {
                "species": [
                    {
                        "element": "Y",
                        "occu": 1
                    }
                ],
                "abc": [
                    0.99991782,
                    0.4682524,
                    0.75
                ],
                "xyz": [
                    5.4218509369905625,
                    -2.779257185705801,
                    5.58437535
                ],
                "label": "Y",
                "properties": {}
            },
            {
                "species": [
                    {
                        "element": "Y",
                        "occu": 1
                    }
                ],
                "abc": [
                    8.218e-05,
                    0.5317476,
                    0.25
                ],
                "xyz": [
                    1.964010543009437,
                    2.779257185705801,
                    1.86145845
                ],
                "label": "Y",
                "properties": {}
            },
            {
                "species": [
                    {
                        "element": "Y",
                        "occu": 1
                    }
                ],
                "abc": [
                    0.5317476,
                    8.218e-05,
                    0.75
                ],
                "xyz": [
                    1.964010543009437,
                    -2.779257185705801,
                    5.58437535
                ],
                "label": "Y",
                "properties": {}
            },
            {
                "species": [
                    {
                        "element": "Y",
                        "occu": 1
                    }
                ],
                "abc": [
                    0.4682524,
                    0.99991782,
                    0.25
                ],
                "xyz": [
                    5.4218509369905625,
                    2.779257185705801,
                    1.86145845
                ],
                "label": "Y",
                "properties": {}
            },
            {
                "species": [
                    {
                        "element": "Sb",
                        "occu": 1
                    }
                ],
                "abc": [
                    0.0,
                    0.0,
                    0.0
                ],
                "xyz": [
                    0.0,
                    0.0,
                    0.0
                ],
                "label": "Sb",
                "properties": {}
            },
            {
                "species": [
                    {
                        "element": "Sb",
                        "occu": 1
                    }
                ],
                "abc": [
                    0.0,
                    0.0,
                    0.5
                ],
                "xyz": [
                    0.0,
                    0.0,
                    3.7229169
                ],
                "label": "Sb",
                "properties": {}
            },
            {
                "species": [
                    {
                        "element": "O",
                        "occu": 1
                    }
                ],
                "abc": [
                    0.63703796,
                    0.36296204,
                    0.75
                ],
                "xyz": [
                    3.6929307399999995,
                    -1.4327196041618209,
                    5.58437535
                ],
                "label": "O",
                "properties": {}
            },
            {
                "species": [
                    {
                        "element": "O",
                        "occu": 1
                    }
                ],
                "abc": [
                    0.36296204,
                    0.63703796,
                    0.25
                ],
                "xyz": [
                    3.6929307399999995,
                    1.4327196041618209,
                    1.86145845
                ],
                "label": "O",
                "properties": {}
            },
            {
                "species": [
                    {
                        "element": "O",
                        "occu": 1
                    }
                ],
                "abc": [
                    0.37013684,
                    0.62986316,
                    0.75
                ],
                "xyz": [
                    3.69293074,
                    1.3577077124499166,
                    5.58437535
                ],
                "label": "O",
                "properties": {}
            },
            {
                "species": [
                    {
                        "element": "O",
                        "occu": 1
                    }
                ],
                "abc": [
                    0.62986316,
                    0.37013684,
                    0.25
                ],
                "xyz": [
                    3.69293074,
                    -1.3577077124499166,
                    1.86145845
                ],
                "label": "O",
                "properties": {}
            },
            {
                "species": [
                    {
                        "element": "O",
                        "occu": 1
                    }
                ],
                "abc": [
                    0.92894952,
                    0.07105048,
                    0.75
                ],
                "xyz": [
                    3.69293074,
                    -4.484628832038969,
                    5.58437535
                ],
                "label": "O",
                "properties": {}
            },
            {
                "species": [
                    {
                        "element": "O",
                        "occu": 1
                    }
                ],
                "abc": [
                    0.07105048,
                    0.92894952,
                    0.25
                ],
                "xyz": [
                    3.69293074,
                    4.484628832038969,
                    1.86145845
                ],
                "label": "O",
                "properties": {}
            },
            {
                "species": [
                    {
                        "element": "O",
                        "occu": 1
                    }
                ],
                "abc": [
                    0.07351523,
                    0.32365898,
                    0.02983823
                ],
                "xyz": [
                    1.4667368492442154,
                    1.30761525669075,
                    0.222170501466174
                ],
                "label": "O",
                "properties": {}
            },
            {
                "species": [
                    {
                        "element": "O",
                        "occu": 1
                    }
                ],
                "abc": [
                    0.92648477,
                    0.67634102,
                    0.52983823
                ],
                "xyz": [
                    5.9191246307557845,
                    -1.3076152566907502,
                    3.9450874014661736
                ],
                "label": "O",
                "properties": {}
            },
            {
                "species": [
                    {
                        "element": "O",
                        "occu": 1
                    }
                ],
                "abc": [
                    0.67634102,
                    0.92648477,
                    0.47016177
                ],
                "xyz": [
                    5.9191246307557845,
                    1.3076152566907502,
                    3.500746398533826
                ],
                "label": "O",
                "properties": {}
            },
            {
                "species": [
                    {
                        "element": "O",
                        "occu": 1
                    }
                ],
                "abc": [
                    0.32365898,
                    0.07351523,
                    0.97016177
                ],
                "xyz": [
                    1.4667368492442154,
                    -1.30761525669075,
                    7.223663298533826
                ],
                "label": "O",
                "properties": {}
            },
            {
                "species": [
                    {
                        "element": "O",
                        "occu": 1
                    }
                ],
                "abc": [
                    0.92648477,
                    0.67634102,
                    0.97016177
                ],
                "xyz": [
                    5.9191246307557845,
                    -1.3076152566907502,
                    7.223663298533826
                ],
                "label": "O",
                "properties": {}
            },
            {
                "species": [
                    {
                        "element": "O",
                        "occu": 1
                    }
                ],
                "abc": [
                    0.07351523,
                    0.32365898,
                    0.47016177
                ],
                "xyz": [
                    1.4667368492442154,
                    1.30761525669075,
                    3.500746398533826
                ],
                "label": "O",
                "properties": {}
            },
            {
                "species": [
                    {
                        "element": "O",
                        "occu": 1
                    }
                ],
                "abc": [
                    0.32365898,
                    0.07351523,
                    0.52983823
                ],
                "xyz": [
                    1.4667368492442154,
                    -1.30761525669075,
                    3.9450874014661736
                ],
                "label": "O",
                "properties": {}
            },
            {
                "species": [
                    {
                        "element": "O",
                        "occu": 1
                    }
                ],
                "abc": [
                    0.67634102,
                    0.92648477,
                    0.02983823
                ],
                "xyz": [
                    5.9191246307557845,
                    1.3076152566907502,
                    0.222170501466174
                ],
                "label": "O",
                "properties": {}
            }
        ]
    },
    "spacegroup": {
        "source": "spglib",
        "symbol": "Cmcm",
        "number": 63,
        "point_group": "mmm",
        "crystal_system": "orthorhombic",
        "hall": "-C 2c 2"
    },
    "dielectric": {
        "epsilon_ionic": [
            [
                31.21568856,
                0.0,
                0.0
            ],
            [
                0.0,
                12.44374278,
                0.0
            ],
            [
                0.0,
                0.0,
                13.19084137
            ]
        ],
        "epsilon_ionic_avg": 18.950090903333333,
        "epsilon_ionic_eig": [
            31.21568856,
            12.44374278,
            13.19084137
        ],
        "epsilon_electronic": [
            [
                4.28815525,
                0.0,
                0.0
            ],
            [
                0.0,
                4.2964969,
                -0.0
            ],
            [
                0.0,
                0.0,
                4.2620327
            ]
        ],
        "epsilon_electronic_avg": 4.282228283333333,
        "epsilon_electronic_eig": [
            4.28815525,
            4.2964969,
            4.2620327
        ]
    },
    "phonon": {
        "lowest_freq": -0.025500041640773578,
        "frequency": [
            -0.025500041640773578,
            -0.021928963447620606,
            -0.019244803607049887,
            1.677060459138199,
            1.9138369846074101,
            3.1594230971357353,
            3.378776667506493,
            3.464631001135149,
            4.123147638003027,
            4.538938581868647,
            4.540670600102176,
            4.610092774285435,
            4.783260929761116,
            4.804161982924284,
            4.967369939128239,
            5.168159679703288,
            5.250361072825237,
            5.87385766473289,
            5.884325385133527,
            6.155596969622561,
            6.60413708174172,
            6.62417854135879,
            6.778750778501963,
            7.121177747937307,
            7.124067384482875,
            7.383920896129538,
            7.642856625910245,
            8.09657108266931,
            8.154867160792204,
            8.64331536142983,
            9.19055160624729,
            9.263988201258556,
            9.359530009560732,
            9.514137043504677,
            9.853288736575037,
            10.086638894537806,
            10.219862203549747,
            10.361570438861506,
            10.385422001439673,
            10.81287938627955,
            10.961191675177458,
            11.103951604895604,
            11.104752064797449,
            11.165436126571437,
            11.410198976525876,
            11.951942267869056,
            12.938503590537028,
            13.308715164716366,
            13.520227148898854,
            13.836820095281833,
            14.018571107442625,
            14.072139563790582,
            14.7559367990714,
            15.077792581450161,
            15.613188668419125,
            15.757057521509864,
            17.860907758365602,
            18.4255509351146,
            19.028210303342938,
            19.17789993037821,
            19.472765226851042,
            19.986877144791052,
            20.22758051765317,
            21.410885354441163,
            22.03566772243864,
            23.384856040753206
        ]
    },
    "born_effective_charge": {
        "avg_abs_trace": 2.96558196969697,
        "tensors": [
            [
                [
                    3.7046,
                    -0.0,
                    0.0
                ],
                [
                    -0.0,
                    3.69815,
                    0.15124
                ],
                [
                    -0.0,
                    0.0548,
                    4.31669
                ]
            ],
            [
                [
                    3.7046,
                    -0.0,
                    0.0
                ],
                [
                    -0.0,
                    3.69815,
                    -0.15124
                ],
                [
                    -0.0,
                    -0.0548,
                    4.31669
                ]
            ],
            [
                [
                    3.70227,
                    -0.19919,
                    0.0
                ],
                [
                    -0.34353,
                    3.99305,
                    -0.0
                ],
                [
                    -1e-05,
                    -4e-05,
                    3.73253
                ]
            ],
            [
                [
                    3.70239,
                    -0.19895,
                    0.0
                ],
                [
                    -0.34336,
                    3.99318,
                    -0.0
                ],
                [
                    1e-05,
                    4e-05,
                    3.73253
                ]
            ],
            [
                [
                    3.70239,
                    0.19895,
                    0.0
                ],
                [
                    0.34353,
                    3.99305,
                    -0.0
                ],
                [
                    1e-05,
                    -4e-05,
                    3.73253
                ]
            ],
            [
                [
                    3.70227,
                    0.19919,
                    0.0
                ],
                [
                    0.34336,
                    3.99318,
                    -0.0
                ],
                [
                    -1e-05,
                    4e-05,
                    3.73253
                ]
            ],
            [
                [
                    4.9246,
                    -0.0,
                    0.0
                ],
                [
                    -0.0,
                    4.72377,
                    -0.33023
                ],
                [
                    -0.0,
                    -0.75312,
                    4.70834
                ]
            ],
            [
                [
                    4.9246,
                    -0.0,
                    0.0
                ],
                [
                    -0.0,
                    4.72377,
                    0.33023
                ],
                [
                    -0.0,
                    0.75312,
                    4.70834
                ]
            ],
            [
                [
                    -2.7242,
                    2e-05,
                    0.0
                ],
                [
                    -0.0,
                    -2.72023,
                    -0.0
                ],
                [
                    -0.0,
                    0.00011,
                    -2.42839
                ]
            ],
            [
                [
                    -2.7242,
                    -2e-05,
                    0.0
                ],
                [
                    -0.0,
                    -2.72021,
                    -0.0
                ],
                [
                    -0.0,
                    -0.00011,
                    -2.42839
                ]
            ],
            [
                [
                    -2.80372,
                    5e-05,
                    0.0
                ],
                [
                    -0.0,
                    -2.41161,
                    -0.0
                ],
                [
                    -0.0,
                    -9e-05,
                    -2.54011
                ]
            ],
            [
                [
                    -2.80372,
                    -5e-05,
                    0.0
                ],
                [
                    -0.0,
                    -2.41157,
                    -0.0
                ],
                [
                    -0.0,
                    9e-05,
                    -2.54011
                ]
            ],
            [
                [
                    -1.69982,
                    -3e-05,
                    0.0
                ],
                [
                    -0.0,
                    -2.05489,
                    -0.0
                ],
                [
                    -0.0,
                    9e-05,
                    -2.90399
                ]
            ],
            [
                [
                    -1.69982,
                    3e-05,
                    0.0
                ],
                [
                    -0.0,
                    -2.05488,
                    -0.0
                ],
                [
                    -0.0,
                    -9e-05,
                    -2.90399
                ]
            ],
            [
                [
                    -2.20151,
                    -0.38388,
                    -0.10281
                ],
                [
                    -0.35476,
                    -2.3054,
                    -0.14307
                ],
                [
                    -0.1737,
                    -0.22358,
                    -2.15441
                ]
            ],
            [
                [
                    -2.20155,
                    -0.38383,
                    0.10272
                ],
                [
                    -0.35475,
                    -2.30533,
                    0.14302
                ],
                [
                    0.1737,
                    0.22358,
                    -2.15441
                ]
            ],
            [
                [
                    -2.20155,
                    0.38383,
                    -0.10272
                ],
                [
                    0.35476,
                    -2.3054,
                    0.14307
                ],
                [
                    -0.17375,
                    0.22367,
                    -2.15439
                ]
            ],
            [
                [
                    -2.20151,
                    0.38388,
                    0.10281
                ],
                [
                    0.35475,
                    -2.30533,
                    -0.14302
                ],
                [
                    0.17375,
                    -0.22367,
                    -2.15439
                ]
            ],
            [
                [
                    -2.20155,
                    -0.38383,
                    -0.10272
                ],
                [
                    -0.35475,
                    -2.30533,
                    -0.14302
                ],
                [
                    -0.17375,
                    -0.22367,
                    -2.15439
                ]
            ],
            [
                [
                    -2.20151,
                    -0.38388,
                    0.10281
                ],
                [
                    -0.35476,
                    -2.3054,
                    0.14307
                ],
                [
                    0.17375,
                    0.22367,
                    -2.15439
                ]
            ],
            [
                [
                    -2.20151,
                    0.38388,
                    -0.10281
                ],
                [
                    0.35475,
                    -2.30533,
                    0.14302
                ],
                [
                    -0.1737,
                    0.22358,
                    -2.15441
                ]
            ],
            [
                [
                    -2.20155,
                    0.38383,
                    0.10272
                ],
                [
                    0.35476,
                    -2.3054,
                    -0.14307
                ],
                [
                    0.1737,
                    -0.22358,
                    -2.15441
                ]
            ]
        ]
    },
    "band_gap": 2.9766,
    "is_direct": false,
    "formula": "Y3SbO7"
}