{
    "mp_id": "mp-975577",
    "nelements": 4,
    "nsites": 28,
    "elements": [
        "As",
        "K",
        "La",
        "O"
    ],
    "structure": {
        "@module": "pymatgen.core.structure",
        "@class": "Structure",
        "charge": null,
        "lattice": {
            "matrix": [
                [
                    7.67594951,
                    0.0,
                    -0.00047924
                ],
                [
                    0.0,
                    5.89754669,
                    0.0
                ],
                [
                    -0.24407002,
                    0.0,
                    9.94346991
                ]
            ],
            "a": 7.675949524960428,
            "b": 5.89754669,
            "c": 9.94646490094537,
            "alpha": 90.0,
            "beta": 91.40966328052924,
            "gamma": 90.0,
            "volume": 450.1329404854656
        },
        "sites": [
            {
                "species": [
                    {
                        "element": "K",
                        "occu": 1
                    }
                ],
                "abc": [
                    0.99099697,
                    0.49489669,
                    0.80837339
                ],
                "xyz": [
                    7.4095429968182165,
                    2.918676336001456,
                    8.037561554121792
                ],
                "label": "K",
                "properties": {}
            },
            {
                "species": [
                    {
                        "element": "K",
                        "occu": 1
                    }
                ],
                "abc": [
                    0.00900303,
                    0.99489669,
                    0.19162661
                ],
                "xyz": [
                    0.0223364931817831,
                    5.867449681001457,
                    1.9054291158782077
                ],
                "label": "K",
                "properties": {}
            },
            {
                "species": [
                    {
                        "element": "K",
                        "occu": 1
                    }
                ],
                "abc": [
                    0.14186571,
                    0.48133169,
                    0.40788658
                ],
                "xyz": [
                    0.9894011414219706,
                    2.838676115151606,
                    4.055739947199947
                ],
                "label": "K",
                "properties": {}
            },
            {
                "species": [
                    {
                        "element": "K",
                        "occu": 1
                    }
                ],
                "abc": [
                    0.85813429,
                    0.98133169,
                    0.59211342
                ],
                "xyz": [
                    6.442478348578029,
                    5.787449460151606,
                    5.887250722800053
                ],
                "label": "K",
                "properties": {}
            },
            {
                "species": [
                    {
                        "element": "K",
                        "occu": 1
                    }
                ],
                "abc": [
                    0.69389947,
                    0.50587782,
                    0.08321609
                ],
                "xyz": [
                    5.306026743985138,
                    2.983438062885416,
                    0.8271241425608491
                ],
                "label": "K",
                "properties": {}
            },
            {
                "species": [
                    {
                        "element": "K",
                        "occu": 1
                    }
                ],
                "abc": [
                    0.30610053,
                    0.00587782,
                    0.91678391
                ],
                "xyz": [
                    2.125852746014862,
                    0.0346647178854158,
                    9.11586652743915
                ],
                "label": "K",
                "properties": {}
            },
            {
                "species": [
                    {
                        "element": "La",
                        "occu": 1
                    }
                ],
                "abc": [
                    0.50970175,
                    0.00993142,
                    0.29131911
                ],
                "xyz": [
                    3.84134263715456,
                    0.058571013147999805,
                    2.8964785350263096
                ],
                "label": "La",
                "properties": {}
            },
            {
                "species": [
                    {
                        "element": "La",
                        "occu": 1
                    }
                ],
                "abc": [
                    0.49029825,
                    0.50993142,
                    0.70868089
                ],
                "xyz": [
                    3.5905368528454393,
                    3.007344358148,
                    7.04651213497369
                ],
                "label": "La",
                "properties": {}
            },
            {
                "species": [
                    {
                        "element": "As",
                        "occu": 1
                    }
                ],
                "abc": [
                    0.74124316,
                    0.00735707,
                    0.91536905
                ],
                "xyz": [
                    5.4663309284519705,
                    0.043388663826598305,
                    9.101589371848286
                ],
                "label": "As",
                "properties": {}
            },
            {
                "species": [
                    {
                        "element": "As",
                        "occu": 1
                    }
                ],
                "abc": [
                    0.25875684,
                    0.50735707,
                    0.08463095
                ],
                "xyz": [
                    1.9655485615480293,
                    2.992162008826598,
                    0.8414012981517128
                ],
                "label": "As",
                "properties": {}
            },
            {
                "species": [
                    {
                        "element": "As",
                        "occu": 1
                    }
                ],
                "abc": [
                    0.69564402,
                    0.47716703,
                    0.42702565
                ],
                "xyz": [
                    5.235504215517417,
                    2.814114838353631,
                    4.245783321133047
                ],
                "label": "As",
                "properties": {}
            },
            {
                "species": [
                    {
                        "element": "As",
                        "occu": 1
                    }
                ],
                "abc": [
                    0.30435598,
                    0.97716703,
                    0.57297435
                ],
                "xyz": [
                    2.196375274482583,
                    5.762888183353631,
                    5.697207348866953
                ],
                "label": "As",
                "properties": {}
            },
            {
                "species": [
                    {
                        "element": "O",
                        "occu": 1
                    }
                ],
                "abc": [
                    0.04022828,
                    0.51987682,
                    0.10181704
                ],
                "xyz": [
                    0.283939759165002,
                    3.065997818998726,
                    1.0123953945643591
                ],
                "label": "O",
                "properties": {}
            },
            {
                "species": [
                    {
                        "element": "O",
                        "occu": 1
                    }
                ],
                "abc": [
                    0.95977172,
                    0.01987682,
                    0.89818296
                ],
                "xyz": [
                    7.147939730834998,
                    0.1172244739987258,
                    8.930595275435639
                ],
                "label": "O",
                "properties": {}
            },
            {
                "species": [
                    {
                        "element": "O",
                        "occu": 1
                    }
                ],
                "abc": [
                    0.51928109,
                    0.91120015,
                    0.54732115
                ],
                "xyz": [
                    3.852390744310843,
                    5.373845428560004,
                    5.442022525862026
                ],
                "label": "O",
                "properties": {}
            },
            {
                "species": [
                    {
                        "element": "O",
                        "occu": 1
                    }
                ],
                "abc": [
                    0.48071891,
                    0.41120015,
                    0.45267885
                ],
                "xyz": [
                    3.5794887456891566,
                    2.4250720835600035,
                    4.500968144137975
                ],
                "label": "O",
                "properties": {}
            },
            {
                "species": [
                    {
                        "element": "O",
                        "occu": 1
                    }
                ],
                "abc": [
                    0.2118473,
                    0.00287422,
                    0.41510126
                ],
                "xyz": [
                    1.5248154057995977,
                    0.0169508466473318,
                    4.1274453627130345
                ],
                "label": "O",
                "properties": {}
            },
            {
                "species": [
                    {
                        "element": "O",
                        "occu": 1
                    }
                ],
                "abc": [
                    0.7881527,
                    0.50287422,
                    0.58489874
                ],
                "xyz": [
                    5.907064084200402,
                    2.965724191647332,
                    5.815545307286964
                ],
                "label": "O",
                "properties": {}
            },
            {
                "species": [
                    {
                        "element": "O",
                        "occu": 1
                    }
                ],
                "abc": [
                    0.26774515,
                    0.21557768,
                    0.66621701
                ],
                "xyz": [
                    1.892594653992336,
                    1.2713794331218793,
                    6.624380478279483
                ],
                "label": "O",
                "properties": {}
            },
            {
                "species": [
                    {
                        "element": "O",
                        "occu": 1
                    }
                ],
                "abc": [
                    0.73225485,
                    0.71557768,
                    0.33378299
                ],
                "xyz": [
                    5.539284836007663,
                    4.2201527781218795,
                    3.3186101917205164
                ],
                "label": "O",
                "properties": {}
            },
            {
                "species": [
                    {
                        "element": "O",
                        "occu": 1
                    }
                ],
                "abc": [
                    0.22333295,
                    0.74555097,
                    0.6556489
                ],
                "xyz": [
                    1.5542682079833765,
                    4.396921655349789,
                    6.51931807859164
                ],
                "label": "O",
                "properties": {}
            },
            {
                "species": [
                    {
                        "element": "O",
                        "occu": 1
                    }
                ],
                "abc": [
                    0.77666705,
                    0.24555097,
                    0.3443511
                ],
                "xyz": [
                    5.877611282016623,
                    1.4481483103497894,
                    3.423672591408359
                ],
                "label": "O",
                "properties": {}
            },
            {
                "species": [
                    {
                        "element": "O",
                        "occu": 1
                    }
                ],
                "abc": [
                    0.33872055,
                    0.26274042,
                    0.15742111
                ],
                "xyz": [
                    2.5615800663333084,
                    1.5495238943002099,
                    1.5651497420474179
                ],
                "label": "O",
                "properties": {}
            },
            {
                "species": [
                    {
                        "element": "O",
                        "occu": 1
                    }
                ],
                "abc": [
                    0.66127945,
                    0.76274042,
                    0.84257889
                ],
                "xyz": [
                    4.870299423666691,
                    4.49829723930021,
                    8.377840927952581
                ],
                "label": "O",
                "properties": {}
            },
            {
                "species": [
                    {
                        "element": "O",
                        "occu": 1
                    }
                ],
                "abc": [
                    0.35370791,
                    0.73521526,
                    0.16592315
                ],
                "xyz": [
                    2.6745471919086614,
                    4.33596632305049,
                    1.6496823384186279
                ],
                "label": "O",
                "properties": {}
            },
            {
                "species": [
                    {
                        "element": "O",
                        "occu": 1
                    }
                ],
                "abc": [
                    0.64629209,
                    0.23521526,
                    0.83407685
                ],
                "xyz": [
                    4.757332298091338,
                    1.3871929780504895,
                    8.293308331581372
                ],
                "label": "O",
                "properties": {}
            },
            {
                "species": [
                    {
                        "element": "O",
                        "occu": 1
                    }
                ],
                "abc": [
                    0.31916465,
                    0.51179276,
                    0.91952649
                ],
                "xyz": [
                    2.225462889971992,
                    3.018321697703964,
                    9.143131028296049
                ],
                "label": "O",
                "properties": {}
            },
            {
                "species": [
                    {
                        "element": "O",
                        "occu": 1
                    }
                ],
                "abc": [
                    0.68083535,
                    0.01179276,
                    0.08047351
                ],
                "xyz": [
                    5.206416600028008,
                    0.0695483527039644,
                    0.79985964170395
                ],
                "label": "O",
                "properties": {}
            }
        ]
    },
    "spacegroup": {
        "source": "spglib",
        "symbol": "P2_1",
        "number": 4,
        "point_group": "2",
        "crystal_system": "monoclinic",
        "hall": "P 2yb"
    },
    "dielectric": {
        "epsilon_ionic": [
            [
                5.38204668,
                -4.82e-05,
                -0.71924799
            ],
            [
                -4.82e-05,
                10.04967855,
                1.708e-05
            ],
            [
                -0.71924799,
                1.708e-05,
                9.50316918
            ]
        ],
        "epsilon_ionic_avg": 8.311631470000002,
        "epsilon_ionic_eig": [
            5.260125321148577,
            9.625090536975138,
            10.049678551876292
        ],
        "epsilon_electronic": [
            [
                2.94253281,
                0.0,
                0.00829901
            ],
            [
                0.0,
                3.16139264,
                0.0
            ],
            [
                0.00829439,
                0.0,
                3.16515913
            ]
        ],
        "epsilon_electronic_avg": 3.0896948600000003,
        "epsilon_electronic_eig": [
            2.942224041980728,
            3.165467898019272,
            3.16139264
        ]
    },
    "phonon": {
        "lowest_freq": -0.07471449023576279,
        "frequency": [
            -0.07471449023576279,
            -0.06362986815208413,
            -0.05029969597511241,
            1.294165127163242,
            1.8745667333896332,
            1.9591610093010763,
            2.067621592560184,
            2.1055343610541692,
            2.2360616961868924,
            2.3844340605356398,
            2.3927075246372604,
            2.464918937645078,
            2.576853714317819,
            2.8778362110157314,
            2.898587437855011,
            3.0424453296446115,
            3.175602817323402,
            3.2139069854619167,
            3.248682831243025,
            3.328142332141205,
            3.4310520944505947,
            3.5107673478203054,
            3.6595260792643565,
            3.730404404629002,
            3.765567465295651,
            3.8465671554480645,
            4.004520331722989,
            4.086669235483545,
            4.104986964702396,
            4.1272767332042255,
            4.17627776524565,
            4.230514491859174,
            4.297448322153067,
            4.541189814390929,
            4.629552749228138,
            4.701362996583007,
            4.74354967242268,
            4.903571482431354,
            4.912099597382734,
            4.926757131793347,
            5.163102042804599,
            5.285111079807932,
            5.541309932627937,
            5.5719666842010716,
            5.648670792625553,
            5.7412403923568665,
            6.117250265025496,
            6.141321578066903,
            8.33671769180442,
            8.511324236965153,
            8.806271085209213,
            9.029194580836526,
            9.029230418488371,
            9.458004502701485,
            9.923124799164322,
            10.128719872710807,
            10.281376111031635,
            10.554227318924973,
            10.833159761929602,
            10.933982762252077,
            11.173244963928298,
            11.199229078581778,
            11.20282457316299,
            11.424361409996306,
            11.688232558027744,
            12.136528646275854,
            12.395419388673313,
            12.941534440464117,
            22.630465750222246,
            22.633098487216962,
            22.66788434158442,
            23.119681336114077,
            23.200020587330094,
            23.283659961852926,
            23.650645558827883,
            23.758239769146698,
            23.92164778417088,
            24.03919052317272,
            24.082855991084827,
            24.3483167535006,
            24.99827546667565,
            25.210045357304594,
            25.459683700534438,
            25.69864432753235
        ]
    },
    "born_effective_charge": {
        "avg_abs_trace": 2.05881630952381,
        "tensors": [
            [
                [
                    1.40943,
                    0.04003,
                    0.09056
                ],
                [
                    0.01768,
                    1.17113,
                    -0.02378
                ],
                [
                    0.07106,
                    -0.02454,
                    1.21996
                ]
            ],
            [
                [
                    1.40944,
                    -0.03999,
                    0.09056
                ],
                [
                    -0.01768,
                    1.17113,
                    0.02378
                ],
                [
                    0.07103,
                    0.02453,
                    1.21998
                ]
            ],
            [
                [
                    1.38373,
                    -0.02202,
                    0.0502
                ],
                [
                    -0.00135,
                    1.15562,
                    0.00759
                ],
                [
                    0.03151,
                    0.00014,
                    1.12303
                ]
            ],
            [
                [
                    1.38363,
                    0.02208,
                    0.05016
                ],
                [
                    0.00135,
                    1.15562,
                    -0.00759
                ],
                [
                    0.0315,
                    -0.00013,
                    1.123
                ]
            ],
            [
                [
                    1.2189,
                    -0.00446,
                    0.00402
                ],
                [
                    -0.0128,
                    1.16455,
                    -0.00781
                ],
                [
                    0.02786,
                    0.01044,
                    1.194
                ]
            ],
            [
                [
                    1.21897,
                    0.0045,
                    0.00408
                ],
                [
                    0.0128,
                    1.16455,
                    0.00781
                ],
                [
                    0.02784,
                    -0.01041,
                    1.194
                ]
            ],
            [
                [
                    3.39504,
                    0.09081,
                    0.06639
                ],
                [
                    -0.09481,
                    4.55245,
                    0.02888
                ],
                [
                    0.20611,
                    0.03514,
                    4.71478
                ]
            ],
            [
                [
                    3.39541,
                    -0.0911,
                    0.06582
                ],
                [
                    0.09481,
                    4.55245,
                    -0.02888
                ],
                [
                    0.20601,
                    -0.03526,
                    4.71512
                ]
            ],
            [
                [
                    3.24519,
                    0.03153,
                    0.00198
                ],
                [
                    -0.03262,
                    3.60361,
                    -0.05021
                ],
                [
                    0.10695,
                    0.02016,
                    3.57128
                ]
            ],
            [
                [
                    3.24556,
                    -0.03143,
                    0.00181
                ],
                [
                    0.03262,
                    3.60361,
                    0.05021
                ],
                [
                    0.107,
                    -0.02013,
                    3.57129
                ]
            ],
            [
                [
                    2.39677,
                    -0.0397,
                    -0.04608
                ],
                [
                    0.09842,
                    3.51008,
                    0.00819
                ],
                [
                    -0.28795,
                    0.02249,
                    3.20496
                ]
            ],
            [
                [
                    2.39685,
                    0.03971,
                    -0.04623
                ],
                [
                    -0.09842,
                    3.51008,
                    -0.00819
                ],
                [
                    -0.28797,
                    -0.02253,
                    3.2051
                ]
            ],
            [
                [
                    -2.27158,
                    0.05222,
                    0.01885
                ],
                [
                    0.03026,
                    -1.27036,
                    -0.01732
                ],
                [
                    -0.02497,
                    -0.00996,
                    -1.30997
                ]
            ],
            [
                [
                    -2.27283,
                    -0.05202,
                    0.01875
                ],
                [
                    -0.03026,
                    -1.27036,
                    0.01732
                ],
                [
                    -0.02485,
                    0.00999,
                    -1.31002
                ]
            ],
            [
                [
                    -1.66815,
                    0.17232,
                    0.17026
                ],
                [
                    0.20578,
                    -1.55525,
                    0.26615
                ],
                [
                    0.22158,
                    0.26924,
                    -1.82196
                ]
            ],
            [
                [
                    -1.66986,
                    -0.17263,
                    0.17074
                ],
                [
                    -0.20578,
                    -1.55525,
                    -0.26615
                ],
                [
                    0.22164,
                    -0.26926,
                    -1.82176
                ]
            ],
            [
                [
                    -1.57859,
                    0.00657,
                    -0.21004
                ],
                [
                    0.04302,
                    -1.25484,
                    0.1269
                ],
                [
                    0.04139,
                    0.08484,
                    -2.17895
                ]
            ],
            [
                [
                    -1.57927,
                    -0.00672,
                    -0.21072
                ],
                [
                    -0.04302,
                    -1.25484,
                    -0.1269
                ],
                [
                    0.04154,
                    -0.08481,
                    -2.17883
                ]
            ],
            [
                [
                    -1.33985,
                    -0.21443,
                    0.04914
                ],
                [
                    -0.3337,
                    -2.47704,
                    -0.58735
                ],
                [
                    -0.08995,
                    -0.64731,
                    -1.58111
                ]
            ],
            [
                [
                    -1.33937,
                    0.21468,
                    0.04827
                ],
                [
                    0.3337,
                    -2.47704,
                    0.58735
                ],
                [
                    -0.0902,
                    0.64712,
                    -1.5808
                ]
            ],
            [
                [
                    -1.57844,
                    -0.01097,
                    0.08305
                ],
                [
                    0.1563,
                    -2.15744,
                    0.50241
                ],
                [
                    -0.00112,
                    0.5575,
                    -1.49854
                ]
            ],
            [
                [
                    -1.57836,
                    0.01055,
                    0.08238
                ],
                [
                    -0.1563,
                    -2.15744,
                    -0.50241
                ],
                [
                    -0.00096,
                    -0.55784,
                    -1.49882
                ]
            ],
            [
                [
                    -1.53573,
                    0.53622,
                    -0.42281
                ],
                [
                    0.78732,
                    -2.5675,
                    0.86612
                ],
                [
                    -0.48412,
                    0.75246,
                    -1.82278
                ]
            ],
            [
                [
                    -1.53568,
                    -0.5358,
                    -0.4224
                ],
                [
                    -0.78732,
                    -2.5675,
                    -0.86612
                ],
                [
                    -0.48409,
                    -0.75214,
                    -1.82268
                ]
            ],
            [
                [
                    -1.5569,
                    -0.60051,
                    -0.45392
                ],
                [
                    -0.80653,
                    -2.56754,
                    -0.92204
                ],
                [
                    -0.52348,
                    -0.81853,
                    -1.85114
                ]
            ],
            [
                [
                    -1.55688,
                    0.60069,
                    -0.45412
                ],
                [
                    0.80653,
                    -2.56754,
                    0.92204
                ],
                [
                    -0.52358,
                    0.81868,
                    -1.85115
                ]
            ],
            [
                [
                    -1.5187,
                    -0.00595,
                    0.60011
                ],
                [
                    -0.01305,
                    -1.30747,
                    -0.00895
                ],
                [
                    0.70513,
                    0.01891,
                    -2.96391
                ]
            ],
            [
                [
                    -1.5187,
                    0.0058,
                    0.59916
                ],
                [
                    0.01305,
                    -1.30747,
                    0.00895
                ],
                [
                    0.70508,
                    -0.0188,
                    -2.96408
                ]
            ]
        ]
    },
    "band_gap": 3.9158,
    "is_direct": false,
    "formula": "K3La(AsO4)2"
}