{
    "mp_id": "mp-997052",
    "nelements": 3,
    "nsites": 8,
    "elements": [
        "Ag",
        "O",
        "Rb"
    ],
    "structure": {
        "@module": "pymatgen.core.structure",
        "@class": "Structure",
        "charge": null,
        "lattice": {
            "matrix": [
                [
                    2.31716038,
                    -6.11171722,
                    0.0
                ],
                [
                    2.31716038,
                    6.11171722,
                    0.0
                ],
                [
                    0.0,
                    0.0,
                    5.85691111
                ]
            ],
            "a": 6.536231299754184,
            "b": 6.536231299754184,
            "c": 5.85691111,
            "alpha": 90.0,
            "beta": 90.0,
            "gamma": 138.47314802402522,
            "volume": 165.88914716857295
        },
        "sites": [
            {
                "species": [
                    {
                        "element": "Rb",
                        "occu": 1
                    }
                ],
                "abc": [
                    0.70043089,
                    0.29956911,
                    0.25
                ],
                "xyz": [
                    2.31716038,
                    -2.4499538436658517,
                    1.4642277775
                ],
                "label": "Rb",
                "properties": {}
            },
            {
                "species": [
                    {
                        "element": "Rb",
                        "occu": 1
                    }
                ],
                "abc": [
                    0.29956911,
                    0.70043089,
                    0.75
                ],
                "xyz": [
                    2.31716038,
                    2.4499538436658517,
                    4.392683332500001
                ],
                "label": "Rb",
                "properties": {}
            },
            {
                "species": [
                    {
                        "element": "Ag",
                        "occu": 1
                    }
                ],
                "abc": [
                    0.99731853,
                    0.00268147,
                    0.25
                ],
                "xyz": [
                    2.31716038,
                    -6.078940447252173,
                    1.4642277775
                ],
                "label": "Ag",
                "properties": {}
            },
            {
                "species": [
                    {
                        "element": "Ag",
                        "occu": 1
                    }
                ],
                "abc": [
                    0.00268147,
                    0.99731853,
                    0.75
                ],
                "xyz": [
                    2.31716038,
                    6.078940447252173,
                    4.392683332500001
                ],
                "label": "Ag",
                "properties": {}
            },
            {
                "species": [
                    {
                        "element": "O",
                        "occu": 1
                    }
                ],
                "abc": [
                    0.89163002,
                    0.10836998,
                    0.9945163
                ],
                "xyz": [
                    2.31716038,
                    -4.787063874205889,
                    5.824793566546093
                ],
                "label": "O",
                "properties": {}
            },
            {
                "species": [
                    {
                        "element": "O",
                        "occu": 1
                    }
                ],
                "abc": [
                    0.10836998,
                    0.89163002,
                    0.0054837
                ],
                "xyz": [
                    2.31716038,
                    4.787063874205889,
                    0.032117543453907
                ],
                "label": "O",
                "properties": {}
            },
            {
                "species": [
                    {
                        "element": "O",
                        "occu": 1
                    }
                ],
                "abc": [
                    0.10836998,
                    0.89163002,
                    0.4945163
                ],
                "xyz": [
                    2.31716038,
                    4.787063874205889,
                    2.8963380115460935
                ],
                "label": "O",
                "properties": {}
            },
            {
                "species": [
                    {
                        "element": "O",
                        "occu": 1
                    }
                ],
                "abc": [
                    0.89163002,
                    0.10836998,
                    0.5054837
                ],
                "xyz": [
                    2.31716038,
                    -4.787063874205889,
                    2.960573098453907
                ],
                "label": "O",
                "properties": {}
            }
        ]
    },
    "spacegroup": {
        "source": "spglib",
        "symbol": "Cmcm",
        "number": 63,
        "point_group": "mmm",
        "crystal_system": "orthorhombic",
        "hall": "-C 2c 2"
    },
    "dielectric": {
        "epsilon_ionic": [
            [
                2.09782914,
                -1e-08,
                -1e-08
            ],
            [
                -1e-08,
                1.96353207,
                5e-08
            ],
            [
                -1e-08,
                5e-08,
                4.27131037
            ]
        ],
        "epsilon_ionic_avg": 2.777557193333333,
        "epsilon_ionic_eig": [
            2.097829140000001,
            4.271310369999999,
            1.9635320699999985
        ],
        "epsilon_electronic": [
            [
                2.36644448,
                0.0,
                0.0
            ],
            [
                0.0,
                3.24721103,
                0.0
            ],
            [
                0.0,
                0.0,
                6.0951513
            ]
        ],
        "epsilon_electronic_avg": 3.9029356033333333,
        "epsilon_electronic_eig": [
            2.36644448,
            3.24721103,
            6.0951513
        ]
    },
    "phonon": {
        "lowest_freq": -0.053421727891185544,
        "frequency": [
            -0.053421727891185544,
            -0.015567779734819967,
            -0.011151812052193419,
            1.9596938824338215,
            2.068329380421617,
            2.636429704552669,
            2.725815422105796,
            2.7854083271360692,
            3.1119135763219283,
            3.497047751161076,
            3.6731822107245238,
            3.9340669505469577,
            5.658526557911262,
            6.930854433846923,
            8.142119367170427,
            8.270481015619959,
            13.106313372087639,
            14.255911548961395,
            15.59241168134694,
            16.043128202817122,
            16.053902068032578,
            16.17378011930027,
            16.77763064521429,
            17.78925490275598
        ]
    },
    "born_effective_charge": {
        "avg_abs_trace": 1.6526525,
        "tensors": [
            [
                [
                    1.20517,
                    6e-05,
                    0.0
                ],
                [
                    0.0,
                    1.49903,
                    0.0
                ],
                [
                    -0.0,
                    -0.00035,
                    1.03608
                ]
            ],
            [
                [
                    1.20517,
                    -6e-05,
                    0.0
                ],
                [
                    0.0,
                    1.49944,
                    0.0
                ],
                [
                    -0.0,
                    0.00035,
                    1.03608
                ]
            ],
            [
                [
                    0.24381,
                    -1e-05,
                    0.0
                ],
                [
                    0.0,
                    1.02812,
                    0.0
                ],
                [
                    0.0,
                    -0.00041,
                    4.90369
                ]
            ],
            [
                [
                    0.24381,
                    1e-05,
                    0.0
                ],
                [
                    0.0,
                    1.02775,
                    0.0
                ],
                [
                    0.0,
                    0.00041,
                    4.90369
                ]
            ],
            [
                [
                    -0.72449,
                    1e-05,
                    -0.00011
                ],
                [
                    0.0,
                    -1.26365,
                    0.03506
                ],
                [
                    -0.0,
                    -0.04489,
                    -2.97013
                ]
            ],
            [
                [
                    -0.72449,
                    -1e-05,
                    0.00011
                ],
                [
                    0.0,
                    -1.26352,
                    0.03494
                ],
                [
                    0.0,
                    -0.04556,
                    -2.96963
                ]
            ],
            [
                [
                    -0.72449,
                    -1e-05,
                    -0.00011
                ],
                [
                    0.0,
                    -1.26352,
                    -0.03494
                ],
                [
                    0.0,
                    0.04489,
                    -2.97013
                ]
            ],
            [
                [
                    -0.72449,
                    1e-05,
                    0.00011
                ],
                [
                    0.0,
                    -1.26365,
                    -0.03506
                ],
                [
                    0.0,
                    0.04556,
                    -2.96963
                ]
            ]
        ]
    },
    "band_gap": 1.4035,
    "is_direct": false,
    "formula": "RbAgO2"
}