{
    "mp_id": "mp-997086",
    "nelements": 3,
    "nsites": 8,
    "elements": [
        "Ag",
        "O",
        "Sr"
    ],
    "structure": {
        "@module": "pymatgen.core.structure",
        "@class": "Structure",
        "charge": null,
        "lattice": {
            "matrix": [
                [
                    3.59505922,
                    -4.69647333,
                    0.0003721
                ],
                [
                    3.59505922,
                    4.69647333,
                    0.0003721
                ],
                [
                    -0.05223976,
                    0.0,
                    3.56116283
                ]
            ],
            "a": 5.914500204849663,
            "b": 5.914500204849663,
            "c": 3.5615459697017062,
            "alpha": 90.5072286534787,
            "beta": 90.5072286534787,
            "gamma": 105.13328930892709,
            "volume": 120.25423945449313
        },
        "sites": [
            {
                "species": [
                    {
                        "element": "Sr",
                        "occu": 1
                    }
                ],
                "abc": [
                    0.0,
                    0.5,
                    0.0
                ],
                "xyz": [
                    1.79752961,
                    2.348236665,
                    0.00018605
                ],
                "label": "Sr",
                "properties": {}
            },
            {
                "species": [
                    {
                        "element": "Sr",
                        "occu": 1
                    }
                ],
                "abc": [
                    0.5,
                    0.0,
                    0.0
                ],
                "xyz": [
                    1.79752961,
                    -2.348236665,
                    0.00018605
                ],
                "label": "Sr",
                "properties": {}
            },
            {
                "species": [
                    {
                        "element": "Ag",
                        "occu": 1
                    }
                ],
                "abc": [
                    0.0,
                    0.0,
                    0.5
                ],
                "xyz": [
                    -0.02611988,
                    0.0,
                    1.780581415
                ],
                "label": "Ag",
                "properties": {}
            },
            {
                "species": [
                    {
                        "element": "Ag",
                        "occu": 1
                    }
                ],
                "abc": [
                    0.5,
                    0.5,
                    0.5
                ],
                "xyz": [
                    3.56893934,
                    0.0,
                    1.780953515
                ],
                "label": "Ag",
                "properties": {}
            },
            {
                "species": [
                    {
                        "element": "O",
                        "occu": 1
                    }
                ],
                "abc": [
                    0.28348911,
                    0.71651089,
                    0.5
                ],
                "xyz": [
                    3.5689393399999996,
                    2.033675241079128,
                    1.780953515
                ],
                "label": "O",
                "properties": {}
            },
            {
                "species": [
                    {
                        "element": "O",
                        "occu": 1
                    }
                ],
                "abc": [
                    0.71651089,
                    0.28348911,
                    0.5
                ],
                "xyz": [
                    3.5689393399999996,
                    -2.033675241079128,
                    1.780953515
                ],
                "label": "O",
                "properties": {}
            },
            {
                "species": [
                    {
                        "element": "O",
                        "occu": 1
                    }
                ],
                "abc": [
                    0.74778926,
                    0.74778926,
                    0.77587581
                ],
                "xyz": [
                    5.336161781455749,
                    0.0,
                    2.7635766000354343
                ],
                "label": "O",
                "properties": {}
            },
            {
                "species": [
                    {
                        "element": "O",
                        "occu": 1
                    }
                ],
                "abc": [
                    0.25221074,
                    0.25221074,
                    0.22412419
                ],
                "xyz": [
                    1.801716898544251,
                    0.0,
                    0.7983304299645657
                ],
                "label": "O",
                "properties": {}
            }
        ]
    },
    "spacegroup": {
        "source": "spglib",
        "symbol": "C2/m",
        "number": 12,
        "point_group": "2/m",
        "crystal_system": "monoclinic",
        "hall": "-C 2y"
    },
    "dielectric": {
        "epsilon_ionic": [
            [
                6.19941797,
                -5.3e-07,
                1.01291976
            ],
            [
                -5.3e-07,
                8.04179588,
                -4.3e-07
            ],
            [
                1.01291976,
                -4.3e-07,
                13.32045098
            ]
        ],
        "epsilon_ionic_avg": 9.187221610000002,
        "epsilon_ionic_eig": [
            13.461729204935228,
            6.058139745064711,
            8.041795880000066
        ],
        "epsilon_electronic": [
            [
                7.44812386,
                0.0,
                1.18227628
            ],
            [
                0.0,
                12.99053967,
                0.0
            ],
            [
                1.18226402,
                0.0,
                5.06543019
            ]
        ],
        "epsilon_electronic_avg": 8.501364573333333,
        "epsilon_electronic_eig": [
            7.93518996251209,
            4.57836408748791,
            12.99053967
        ]
    },
    "phonon": {
        "lowest_freq": -0.016455396917628734,
        "frequency": [
            -0.016455396917628734,
            -0.011684878427094699,
            -0.006432821721533675,
            1.6925695821404245,
            2.4316394587385513,
            2.484396357604642,
            2.7857803239152577,
            3.4439997044164814,
            3.9953029162219043,
            4.7226607985848235,
            5.8520694639551545,
            5.961147769705675,
            8.052815850840034,
            8.565751890719172,
            8.638262623825117,
            9.439716823129906,
            10.187515120272147,
            10.855119509355879,
            11.032836868445434,
            11.255589304016492,
            13.23934002830803,
            13.410512080594215,
            13.904772188787721,
            15.194978281658644
        ]
    },
    "born_effective_charge": {
        "avg_abs_trace": 2.0129725,
        "tensors": [
            [
                [
                    2.39512,
                    -0.53696,
                    0.11
                ],
                [
                    -1.07845,
                    2.94709,
                    -0.31331
                ],
                [
                    0.05561,
                    -0.60889,
                    2.7594
                ]
            ],
            [
                [
                    2.39512,
                    0.53696,
                    0.11
                ],
                [
                    1.07845,
                    2.94709,
                    0.31331
                ],
                [
                    0.05561,
                    0.60889,
                    2.7594
                ]
            ],
            [
                [
                    1.50007,
                    0.0,
                    -0.63462
                ],
                [
                    -0.0,
                    0.477,
                    0.0
                ],
                [
                    -0.23128,
                    0.0,
                    0.43657
                ]
            ],
            [
                [
                    2.09592,
                    0.0,
                    1.25849
                ],
                [
                    -0.0,
                    2.45388,
                    0.0
                ],
                [
                    0.60338,
                    0.0,
                    0.98901
                ]
            ],
            [
                [
                    -1.49581,
                    0.00011,
                    0.08829
                ],
                [
                    -0.0,
                    -2.93071,
                    0.0
                ],
                [
                    0.09157,
                    -8e-05,
                    -1.74662
                ]
            ],
            [
                [
                    -1.49581,
                    -0.00011,
                    0.08829
                ],
                [
                    0.0,
                    -2.93091,
                    0.0
                ],
                [
                    0.09157,
                    8e-05,
                    -1.74662
                ]
            ],
            [
                [
                    -2.69767,
                    0.0,
                    -0.51056
                ],
                [
                    0.00308,
                    -1.48172,
                    0.00136
                ],
                [
                    -0.33368,
                    0.0,
                    -1.72573
                ]
            ],
            [
                [
                    -2.69693,
                    0.0,
                    -0.50989
                ],
                [
                    -0.00308,
                    -1.48172,
                    -0.00136
                ],
                [
                    -0.33279,
                    0.0,
                    -1.72542
                ]
            ]
        ]
    },
    "band_gap": 1.0476000000000005,
    "is_direct": false,
    "formula": "SrAgO2"
}