{
    "mp_id": "mp-997041",
    "nelements": 3,
    "nsites": 8,
    "elements": [
        "Cu",
        "Na",
        "O"
    ],
    "structure": {
        "@module": "pymatgen.core.structure",
        "@class": "Structure",
        "charge": null,
        "lattice": {
            "matrix": [
                [
                    1.79166562,
                    -5.35056346,
                    0.0
                ],
                [
                    1.79166562,
                    5.35056346,
                    0.0
                ],
                [
                    0.0,
                    0.0,
                    5.28401481
                ]
            ],
            "a": 5.642569896188895,
            "b": 5.642569896188895,
            "c": 5.28401481,
            "alpha": 90.0,
            "beta": 90.0,
            "gamma": 142.9731890667484,
            "volume": 101.30957683906163
        },
        "sites": [
            {
                "species": [
                    {
                        "element": "Na",
                        "occu": 1
                    }
                ],
                "abc": [
                    0.71074479,
                    0.28925521,
                    0.25
                ],
                "xyz": [
                    1.79166562,
                    -2.2552067455187466,
                    1.3210037025
                ],
                "label": "Na",
                "properties": {}
            },
            {
                "species": [
                    {
                        "element": "Na",
                        "occu": 1
                    }
                ],
                "abc": [
                    0.28925521,
                    0.71074479,
                    0.75
                ],
                "xyz": [
                    1.79166562,
                    2.2552067455187466,
                    3.9630111075000003
                ],
                "label": "Na",
                "properties": {}
            },
            {
                "species": [
                    {
                        "element": "Cu",
                        "occu": 1
                    }
                ],
                "abc": [
                    0.99663238,
                    0.00336762,
                    0.25
                ],
                "xyz": [
                    1.79166562,
                    -5.314526130961669,
                    1.3210037025
                ],
                "label": "Cu",
                "properties": {}
            },
            {
                "species": [
                    {
                        "element": "Cu",
                        "occu": 1
                    }
                ],
                "abc": [
                    0.00336762,
                    0.99663238,
                    0.75
                ],
                "xyz": [
                    1.79166562,
                    5.314526130961669,
                    3.9630111075000003
                ],
                "label": "Cu",
                "properties": {}
            },
            {
                "species": [
                    {
                        "element": "O",
                        "occu": 1
                    }
                ],
                "abc": [
                    0.11475164,
                    0.88524836,
                    0.49340403
                ],
                "xyz": [
                    1.7916656199999998,
                    4.12259159608185,
                    2.6071542018336844
                ],
                "label": "O",
                "properties": {}
            },
            {
                "species": [
                    {
                        "element": "O",
                        "occu": 1
                    }
                ],
                "abc": [
                    0.88524836,
                    0.11475164,
                    0.50659597
                ],
                "xyz": [
                    1.7916656199999998,
                    -4.12259159608185,
                    2.676860608166316
                ],
                "label": "O",
                "properties": {}
            },
            {
                "species": [
                    {
                        "element": "O",
                        "occu": 1
                    }
                ],
                "abc": [
                    0.11475164,
                    0.88524836,
                    0.00659597
                ],
                "xyz": [
                    1.7916656199999998,
                    4.12259159608185,
                    0.034853203166315704
                ],
                "label": "O",
                "properties": {}
            },
            {
                "species": [
                    {
                        "element": "O",
                        "occu": 1
                    }
                ],
                "abc": [
                    0.88524836,
                    0.11475164,
                    0.99340403
                ],
                "xyz": [
                    1.7916656199999998,
                    -4.12259159608185,
                    5.249161606833685
                ],
                "label": "O",
                "properties": {}
            }
        ]
    },
    "spacegroup": {
        "source": "spglib",
        "symbol": "Cmcm",
        "number": 63,
        "point_group": "mmm",
        "crystal_system": "orthorhombic",
        "hall": "-C 2c 2"
    },
    "dielectric": {
        "epsilon_ionic": [
            [
                2.19698348,
                -0.0,
                -1e-08
            ],
            [
                -0.0,
                2.04009007,
                -2e-08
            ],
            [
                -1e-08,
                -2e-08,
                3.82154326
            ]
        ],
        "epsilon_ionic_avg": 2.6862056033333332,
        "epsilon_ionic_eig": [
            2.19698348,
            3.8215432600000008,
            2.0400900699999998
        ],
        "epsilon_electronic": [
            [
                2.53052261,
                0.0,
                0.0
            ],
            [
                0.0,
                3.55442396,
                -0.0
            ],
            [
                0.0,
                -0.0,
                7.71400351
            ]
        ],
        "epsilon_electronic_avg": 4.599650026666667,
        "epsilon_electronic_eig": [
            2.53052261,
            3.55442396,
            7.71400351
        ]
    },
    "phonon": {
        "lowest_freq": -0.04362515044015124,
        "frequency": [
            -0.04362515044015124,
            -0.03661235313457004,
            -0.019337946548958988,
            3.2269465923754397,
            3.3805731234179754,
            4.658235072923721,
            4.891521507609314,
            5.2163843083696335,
            5.864828567600815,
            6.200259338348089,
            6.451667852114712,
            6.7993602477527455,
            7.457926697584288,
            8.389967545980406,
            9.571212425202344,
            10.728026594194699,
            14.480643690738919,
            15.402717487551445,
            18.508767423663407,
            18.66705722612997,
            18.69239206748504,
            19.121829933163482,
            19.558028330831046,
            20.48764047478198
        ]
    },
    "born_effective_charge": {
        "avg_abs_trace": 1.42002,
        "tensors": [
            [
                [
                    1.00442,
                    3e-05,
                    0.0
                ],
                [
                    0.0,
                    1.45865,
                    0.0
                ],
                [
                    0.0,
                    -0.00012,
                    0.98106
                ]
            ],
            [
                [
                    1.00442,
                    -3e-05,
                    0.0
                ],
                [
                    0.0,
                    1.45867,
                    0.0
                ],
                [
                    0.0,
                    0.00012,
                    0.98106
                ]
            ],
            [
                [
                    0.47111,
                    2e-05,
                    0.0
                ],
                [
                    0.0,
                    0.62253,
                    0.0
                ],
                [
                    0.0,
                    -0.00032,
                    3.98235
                ]
            ],
            [
                [
                    0.47111,
                    -2e-05,
                    0.0
                ],
                [
                    0.0,
                    0.62251,
                    0.0
                ],
                [
                    0.0,
                    0.00032,
                    3.98235
                ]
            ],
            [
                [
                    -0.73776,
                    1e-05,
                    -2e-05
                ],
                [
                    0.0,
                    -1.04039,
                    0.02094
                ],
                [
                    -0.0,
                    0.0703,
                    -2.4818
                ]
            ],
            [
                [
                    -0.73776,
                    -1e-05,
                    2e-05
                ],
                [
                    0.0,
                    -1.04079,
                    0.02073
                ],
                [
                    0.0,
                    0.07085,
                    -2.48162
                ]
            ],
            [
                [
                    -0.73776,
                    1e-05,
                    2e-05
                ],
                [
                    0.0,
                    -1.04039,
                    -0.02094
                ],
                [
                    -0.0,
                    -0.07085,
                    -2.48162
                ]
            ],
            [
                [
                    -0.73776,
                    -1e-05,
                    -2e-05
                ],
                [
                    0.0,
                    -1.04079,
                    -0.02073
                ],
                [
                    0.0,
                    -0.0703,
                    -2.4818
                ]
            ]
        ]
    },
    "band_gap": 0.7911000000000001,
    "is_direct": false,
    "formula": "NaCuO2"
}