{
    "mp_id": "mp-9197",
    "nelements": 3,
    "nsites": 16,
    "elements": [
        "As",
        "Li",
        "O"
    ],
    "structure": {
        "@module": "pymatgen.core.structure",
        "@class": "Structure",
        "charge": null,
        "lattice": {
            "matrix": [
                [
                    6.28352316,
                    0.0,
                    0.0
                ],
                [
                    0.0,
                    5.39897257,
                    0.0
                ],
                [
                    0.0,
                    0.0,
                    4.96706111
                ]
            ],
            "a": 6.28352316,
            "b": 5.39897257,
            "c": 4.96706111,
            "alpha": 90.0,
            "beta": 90.0,
            "gamma": 90.0,
            "volume": 168.50540826635603
        },
        "sites": [
            {
                "species": [
                    {
                        "element": "Li",
                        "occu": 1
                    }
                ],
                "abc": [
                    0.5,
                    0.16505015,
                    0.00507909
                ],
                "xyz": [
                    3.14176158,
                    0.8911012325243854,
                    0.0252281504131899
                ],
                "label": "Li",
                "properties": {}
            },
            {
                "species": [
                    {
                        "element": "Li",
                        "occu": 1
                    }
                ],
                "abc": [
                    0.0,
                    0.83494985,
                    0.50507909
                ],
                "xyz": [
                    0.0,
                    4.507871337475614,
                    2.50875870541319
                ],
                "label": "Li",
                "properties": {}
            },
            {
                "species": [
                    {
                        "element": "Li",
                        "occu": 1
                    }
                ],
                "abc": [
                    0.24778573,
                    0.66918611,
                    0.00504222
                ],
                "xyz": [
                    1.5569673731725069,
                    3.6129174521150023,
                    0.025045014870064202
                ],
                "label": "Li",
                "properties": {}
            },
            {
                "species": [
                    {
                        "element": "Li",
                        "occu": 1
                    }
                ],
                "abc": [
                    0.25221427,
                    0.33081389,
                    0.50504222
                ],
                "xyz": [
                    1.5847942068274932,
                    1.7860551178849973,
                    2.5085755698700645
                ],
                "label": "Li",
                "properties": {}
            },
            {
                "species": [
                    {
                        "element": "Li",
                        "occu": 1
                    }
                ],
                "abc": [
                    0.74778573,
                    0.33081389,
                    0.50504222
                ],
                "xyz": [
                    4.698728953172507,
                    1.7860551178849973,
                    2.5085755698700645
                ],
                "label": "Li",
                "properties": {}
            },
            {
                "species": [
                    {
                        "element": "Li",
                        "occu": 1
                    }
                ],
                "abc": [
                    0.75221427,
                    0.66918611,
                    0.00504222
                ],
                "xyz": [
                    4.726555786827492,
                    3.6129174521150023,
                    0.025045014870064202
                ],
                "label": "Li",
                "properties": {}
            },
            {
                "species": [
                    {
                        "element": "As",
                        "occu": 1
                    }
                ],
                "abc": [
                    0.5,
                    0.8297826,
                    0.49750748
                ],
                "xyz": [
                    3.14176158,
                    4.479973496463282,
                    2.471150055842103
                ],
                "label": "As",
                "properties": {}
            },
            {
                "species": [
                    {
                        "element": "As",
                        "occu": 1
                    }
                ],
                "abc": [
                    0.0,
                    0.1702174,
                    0.99750748
                ],
                "xyz": [
                    0.0,
                    0.918999073536718,
                    4.954680610842103
                ],
                "label": "As",
                "properties": {}
            },
            {
                "species": [
                    {
                        "element": "O",
                        "occu": 1
                    }
                ],
                "abc": [
                    0.0,
                    0.17533866,
                    0.65210062
                ],
                "xyz": [
                    0.0,
                    0.9466486158005561,
                    3.2390236294088885
                ],
                "label": "O",
                "properties": {}
            },
            {
                "species": [
                    {
                        "element": "O",
                        "occu": 1
                    }
                ],
                "abc": [
                    0.5,
                    0.82466134,
                    0.15210062
                ],
                "xyz": [
                    3.14176158,
                    4.452323954199444,
                    0.7554930744088882
                ],
                "label": "O",
                "properties": {}
            },
            {
                "species": [
                    {
                        "element": "O",
                        "occu": 1
                    }
                ],
                "abc": [
                    0.2236385,
                    0.32062576,
                    0.11021904
                ],
                "xyz": [
                    1.4052376942176599,
                    1.731049683475403,
                    0.5474647071655344
                ],
                "label": "O",
                "properties": {}
            },
            {
                "species": [
                    {
                        "element": "O",
                        "occu": 1
                    }
                ],
                "abc": [
                    0.2763615,
                    0.67937424,
                    0.61021904
                ],
                "xyz": [
                    1.7365238857823397,
                    3.6679228865245967,
                    3.030995262165535
                ],
                "label": "O",
                "properties": {}
            },
            {
                "species": [
                    {
                        "element": "O",
                        "occu": 1
                    }
                ],
                "abc": [
                    0.7236385,
                    0.67937424,
                    0.61021904
                ],
                "xyz": [
                    4.54699927421766,
                    3.6679228865245967,
                    3.030995262165535
                ],
                "label": "O",
                "properties": {}
            },
            {
                "species": [
                    {
                        "element": "O",
                        "occu": 1
                    }
                ],
                "abc": [
                    0.7763615,
                    0.32062576,
                    0.11021904
                ],
                "xyz": [
                    4.87828546578234,
                    1.731049683475403,
                    0.5474647071655344
                ],
                "label": "O",
                "properties": {}
            },
            {
                "species": [
                    {
                        "element": "O",
                        "occu": 1
                    }
                ],
                "abc": [
                    0.0,
                    0.86937098,
                    0.10799028
                ],
                "xyz": [
                    0.0,
                    4.693710074174018,
                    0.5363943200460108
                ],
                "label": "O",
                "properties": {}
            },
            {
                "species": [
                    {
                        "element": "O",
                        "occu": 1
                    }
                ],
                "abc": [
                    0.5,
                    0.13062902,
                    0.60799028
                ],
                "xyz": [
                    3.14176158,
                    0.7052624958259814,
                    3.019924875046011
                ],
                "label": "O",
                "properties": {}
            }
        ]
    },
    "spacegroup": {
        "source": "spglib",
        "symbol": "Pmn2_1",
        "number": 31,
        "point_group": "mm2",
        "crystal_system": "orthorhombic",
        "hall": "P 2ac -2"
    },
    "dielectric": {
        "epsilon_ionic": [
            [
                2.81407639,
                -0.0,
                3e-08
            ],
            [
                -0.0,
                2.68942552,
                2.1e-07
            ],
            [
                3e-08,
                2.1e-07,
                3.30434365
            ]
        ],
        "epsilon_ionic_avg": 2.9359485199999997,
        "epsilon_ionic_eig": [
            2.814076389999998,
            3.3043436500000736,
            2.689425519999928
        ],
        "epsilon_electronic": [
            [
                2.7949454,
                0.0,
                0.0
            ],
            [
                0.0,
                2.77518833,
                0.0
            ],
            [
                0.0,
                0.0,
                2.85741176
            ]
        ],
        "epsilon_electronic_avg": 2.80918183,
        "epsilon_electronic_eig": [
            2.7949454,
            2.77518833,
            2.85741176
        ]
    },
    "phonon": {
        "lowest_freq": -0.02872658157460003,
        "frequency": [
            -0.02872658157460003,
            -0.025734483049717972,
            -0.02236250628558564,
            3.7919140224593755,
            4.157762612433399,
            4.465565951041465,
            5.490378203776681,
            6.500043531925687,
            7.224980389073736,
            7.249364015573205,
            7.456476428321171,
            8.69401231145743,
            8.89543181225632,
            9.722658285633887,
            9.83792076016012,
            9.843559521335115,
            10.3252453114202,
            10.545225886732451,
            10.816213164273513,
            10.964882410107968,
            11.292141174492702,
            11.87003814767605,
            12.155086819924035,
            12.263915389194487,
            12.347407905641495,
            12.460051100077726,
            12.656244683062008,
            12.713190660915869,
            13.159727038194635,
            13.302647978200817,
            13.475266812466273,
            13.839628417099592,
            13.974321321435982,
            14.00074771170023,
            14.111101760489147,
            14.597438860320368,
            14.865904929571165,
            15.196272873518518,
            15.31975033177281,
            15.569471644786153,
            23.316987704726152,
            23.412154250425104,
            23.584540693391332,
            23.734180885841344,
            23.743972920045103,
            24.093590858845246,
            24.173220739740415,
            24.21292849139432
        ]
    },
    "born_effective_charge": {
        "avg_abs_trace": 1.5500245833333333,
        "tensors": [
            [
                [
                    1.19066,
                    -0.0,
                    0.0
                ],
                [
                    0.0,
                    0.88735,
                    0.03809
                ],
                [
                    0.0,
                    -0.15304,
                    1.06389
                ]
            ],
            [
                [
                    1.19066,
                    0.0,
                    0.0
                ],
                [
                    0.0,
                    0.88735,
                    -0.03809
                ],
                [
                    0.0,
                    0.15304,
                    1.06389
                ]
            ],
            [
                [
                    0.94641,
                    0.10308,
                    -0.10709
                ],
                [
                    -0.1028,
                    1.12423,
                    -0.01971
                ],
                [
                    0.12043,
                    0.08016,
                    1.03704
                ]
            ],
            [
                [
                    0.94641,
                    0.10308,
                    0.10709
                ],
                [
                    -0.1028,
                    1.12423,
                    0.01971
                ],
                [
                    -0.12043,
                    -0.08016,
                    1.03704
                ]
            ],
            [
                [
                    0.94641,
                    -0.10308,
                    -0.10709
                ],
                [
                    0.1028,
                    1.12423,
                    0.01971
                ],
                [
                    0.12043,
                    -0.08016,
                    1.03704
                ]
            ],
            [
                [
                    0.94641,
                    -0.10308,
                    0.10709
                ],
                [
                    0.1028,
                    1.12423,
                    -0.01971
                ],
                [
                    -0.12043,
                    0.08016,
                    1.03704
                ]
            ],
            [
                [
                    3.14987,
                    -0.0,
                    -0.0
                ],
                [
                    0.0,
                    2.86957,
                    -0.00742
                ],
                [
                    0.0,
                    0.02734,
                    3.22359
                ]
            ],
            [
                [
                    3.14987,
                    0.0,
                    -0.0
                ],
                [
                    0.0,
                    2.86957,
                    0.00742
                ],
                [
                    0.0,
                    -0.02734,
                    3.22359
                ]
            ],
            [
                [
                    -1.29903,
                    -0.0,
                    0.0
                ],
                [
                    0.0,
                    -1.17097,
                    -0.0037
                ],
                [
                    0.0,
                    0.00582,
                    -2.12471
                ]
            ],
            [
                [
                    -1.29903,
                    0.0,
                    0.0
                ],
                [
                    0.0,
                    -1.17097,
                    0.0037
                ],
                [
                    0.0,
                    -0.00582,
                    -2.12471
                ]
            ],
            [
                [
                    -1.81373,
                    -0.34939,
                    -0.22745
                ],
                [
                    -0.23424,
                    -1.47024,
                    -0.10758
                ],
                [
                    -0.24211,
                    -0.08906,
                    -1.41283
                ]
            ],
            [
                [
                    -1.81373,
                    -0.34939,
                    0.22745
                ],
                [
                    -0.23424,
                    -1.47024,
                    0.10758
                ],
                [
                    0.24211,
                    0.08906,
                    -1.41283
                ]
            ],
            [
                [
                    -1.81373,
                    0.34939,
                    -0.22745
                ],
                [
                    0.23424,
                    -1.47024,
                    0.10758
                ],
                [
                    -0.24211,
                    0.08906,
                    -1.41283
                ]
            ],
            [
                [
                    -1.81373,
                    0.34939,
                    0.22745
                ],
                [
                    0.23424,
                    -1.47024,
                    -0.10758
                ],
                [
                    0.24211,
                    -0.08906,
                    -1.41283
                ]
            ],
            [
                [
                    -1.30686,
                    0.0,
                    0.0
                ],
                [
                    0.0,
                    -1.89394,
                    0.22634
                ],
                [
                    0.0,
                    0.20991,
                    -1.41119
                ]
            ],
            [
                [
                    -1.30686,
                    -0.0,
                    0.0
                ],
                [
                    0.0,
                    -1.89394,
                    -0.22634
                ],
                [
                    0.0,
                    -0.20991,
                    -1.41119
                ]
            ]
        ]
    },
    "band_gap": 4.2401,
    "is_direct": false,
    "formula": "Li3AsO4"
}