{
    "mp_id": "mp-9793",
    "nelements": 4,
    "nsites": 16,
    "elements": [
        "As",
        "B",
        "Ba",
        "O"
    ],
    "structure": {
        "@module": "pymatgen.core.structure",
        "@class": "Structure",
        "charge": null,
        "lattice": {
            "matrix": [
                [
                    5.52318141,
                    0.0,
                    0.0
                ],
                [
                    -2.76159021,
                    4.78321533,
                    0.0
                ],
                [
                    0.0,
                    0.0,
                    13.74673985
                ]
            ],
            "a": 5.52318141,
            "b": 5.52318109255118,
            "c": 13.74673985,
            "alpha": 90.0,
            "beta": 90.0,
            "gamma": 119.99999597192033,
            "volume": 363.169153883977
        },
        "sites": [
            {
                "species": [
                    {
                        "element": "Ba",
                        "occu": 1
                    }
                ],
                "abc": [
                    0.333333,
                    0.666667,
                    0.3989311
                ],
                "xyz": [
                    -2.431590540030726e-06,
                    3.18881181440511,
                    5.484002049774335
                ],
                "label": "Ba",
                "properties": {}
            },
            {
                "species": [
                    {
                        "element": "Ba",
                        "occu": 1
                    }
                ],
                "abc": [
                    0.0,
                    0.0,
                    0.25
                ],
                "xyz": [
                    0.0,
                    0.0,
                    3.4366849625
                ],
                "label": "Ba",
                "properties": {}
            },
            {
                "species": [
                    {
                        "element": "Ba",
                        "occu": 1
                    }
                ],
                "abc": [
                    0.0,
                    0.0,
                    0.75
                ],
                "xyz": [
                    0.0,
                    0.0,
                    10.310054887500002
                ],
                "label": "Ba",
                "properties": {}
            },
            {
                "species": [
                    {
                        "element": "Ba",
                        "occu": 1
                    }
                ],
                "abc": [
                    0.666667,
                    0.333333,
                    0.8989311
                ],
                "xyz": [
                    2.7615936315905403,
                    1.59440351559489,
                    12.357371974774335
                ],
                "label": "Ba",
                "properties": {}
            },
            {
                "species": [
                    {
                        "element": "Ba",
                        "occu": 1
                    }
                ],
                "abc": [
                    0.666667,
                    0.333333,
                    0.6010689
                ],
                "xyz": [
                    2.7615936315905403,
                    1.59440351559489,
                    8.262737800225667
                ],
                "label": "Ba",
                "properties": {}
            },
            {
                "species": [
                    {
                        "element": "Ba",
                        "occu": 1
                    }
                ],
                "abc": [
                    0.333333,
                    0.666667,
                    0.1010689
                ],
                "xyz": [
                    -2.431590540030726e-06,
                    3.18881181440511,
                    1.389367875225665
                ],
                "label": "Ba",
                "properties": {}
            },
            {
                "species": [
                    {
                        "element": "B",
                        "occu": 1
                    }
                ],
                "abc": [
                    0.666667,
                    0.333333,
                    0.25
                ],
                "xyz": [
                    2.7615936315905403,
                    1.59440351559489,
                    3.4366849625
                ],
                "label": "B",
                "properties": {}
            },
            {
                "species": [
                    {
                        "element": "B",
                        "occu": 1
                    }
                ],
                "abc": [
                    0.333333,
                    0.666667,
                    0.75
                ],
                "xyz": [
                    -2.431590540030726e-06,
                    3.18881181440511,
                    10.310054887500002
                ],
                "label": "B",
                "properties": {}
            },
            {
                "species": [
                    {
                        "element": "As",
                        "occu": 1
                    }
                ],
                "abc": [
                    0.0,
                    0.0,
                    0.0
                ],
                "xyz": [
                    0.0,
                    0.0,
                    0.0
                ],
                "label": "As",
                "properties": {}
            },
            {
                "species": [
                    {
                        "element": "As",
                        "occu": 1
                    }
                ],
                "abc": [
                    0.0,
                    0.0,
                    0.5
                ],
                "xyz": [
                    0.0,
                    0.0,
                    6.873369925
                ],
                "label": "As",
                "properties": {}
            },
            {
                "species": [
                    {
                        "element": "O",
                        "occu": 1
                    }
                ],
                "abc": [
                    0.4790941,
                    0.95818821,
                    0.75
                ],
                "xyz": [
                    4.4668725740493187e-07,
                    4.583220535097259,
                    10.310054887500002
                ],
                "label": "O",
                "properties": {}
            },
            {
                "species": [
                    {
                        "element": "O",
                        "occu": 1
                    }
                ],
                "abc": [
                    0.5209059,
                    0.4790941,
                    0.25
                ],
                "xyz": [
                    1.5539962070105582,
                    2.291610243632553,
                    3.4366849625
                ],
                "label": "O",
                "properties": {}
            },
            {
                "species": [
                    {
                        "element": "O",
                        "occu": 1
                    }
                ],
                "abc": [
                    0.5209059,
                    0.04181179,
                    0.25
                ],
                "xyz": [
                    2.7615907533127433,
                    0.19999479490274072,
                    3.4366849625
                ],
                "label": "O",
                "properties": {}
            },
            {
                "species": [
                    {
                        "element": "O",
                        "occu": 1
                    }
                ],
                "abc": [
                    0.04181179,
                    0.5209059,
                    0.75
                ],
                "xyz": [
                    -1.207594532524415,
                    2.4916050863674473,
                    10.310054887500002
                ],
                "label": "O",
                "properties": {}
            },
            {
                "species": [
                    {
                        "element": "O",
                        "occu": 1
                    }
                ],
                "abc": [
                    0.4790941,
                    0.5209059,
                    0.75
                ],
                "xyz": [
                    1.2075949929894423,
                    2.4916050863674473,
                    10.310054887500002
                ],
                "label": "O",
                "properties": {}
            },
            {
                "species": [
                    {
                        "element": "O",
                        "occu": 1
                    }
                ],
                "abc": [
                    0.95818821,
                    0.4790941,
                    0.25
                ],
                "xyz": [
                    3.9691857325244153,
                    2.291610243632553,
                    3.4366849625
                ],
                "label": "O",
                "properties": {}
            }
        ]
    },
    "spacegroup": {
        "source": "spglib",
        "symbol": "P6_3/mmc",
        "number": 194,
        "point_group": "6/mmm",
        "crystal_system": "hexagonal",
        "hall": "-P 6c 2c"
    },
    "dielectric": {
        "epsilon_ionic": [
            [
                9.26362707,
                1.05e-06,
                1e-08
            ],
            [
                1.05e-06,
                9.26319903,
                4e-08
            ],
            [
                1e-08,
                4e-08,
                10.36078329
            ]
        ],
        "epsilon_ionic_avg": 9.62920313,
        "epsilon_ionic_eig": [
            9.263627072575678,
            9.263199027424324,
            10.36078329
        ],
        "epsilon_electronic": [
            [
                5.42933617,
                -5.7e-07,
                0.0
            ],
            [
                -5.7e-07,
                5.42933604,
                -0.0
            ],
            [
                0.0,
                0.0,
                5.4567508
            ]
        ],
        "epsilon_electronic_avg": 5.438474336666666,
        "epsilon_electronic_eig": [
            5.4293366786941695,
            5.4293355313058305,
            5.4567508
        ]
    },
    "phonon": {
        "lowest_freq": -0.05404042378323955,
        "frequency": [
            -0.05404042378323955,
            -0.0114999848583572,
            -0.011499983657607085,
            1.419632507284005,
            1.4196326562000812,
            1.7261784495391042,
            1.7261786265197336,
            1.896875019871719,
            2.4608177725500844,
            2.460818030773312,
            2.5624542637633967,
            2.80848330531794,
            2.815706011694669,
            2.815706306810849,
            2.8719287290822932,
            2.871929026931055,
            3.0848388046893818,
            3.1683720543846072,
            3.1683723860756112,
            3.231639409745731,
            3.2316397500685197,
            3.317683788557082,
            3.840084783529858,
            4.546466985785368,
            5.723114603455695,
            5.723114603455695,
            5.776822992650712,
            5.776822992650712,
            5.919859146979716,
            5.989243885601719,
            5.989244497699316,
            5.998817337253421,
            5.998817968744866,
            6.354800003818203,
            6.359993999214178,
            7.772823830011562,
            16.464230909249473,
            16.464231057692565,
            16.481075926635103,
            16.481076074926467,
            20.91514703868623,
            21.18343254723636,
            26.44136841128415,
            26.44567257121026,
            35.31187052027269,
            35.31187391165516,
            35.33976234764704,
            35.33976570177424
        ]
    },
    "born_effective_charge": {
        "avg_abs_trace": 2.5232304166666664,
        "tensors": [
            [
                [
                    2.4908,
                    -0.00054,
                    -0.00018
                ],
                [
                    0.0,
                    2.49122,
                    -0.0009
                ],
                [
                    -0.0,
                    -0.0,
                    2.5498
                ]
            ],
            [
                [
                    2.53038,
                    0.00021,
                    -0.0
                ],
                [
                    0.0,
                    2.53029,
                    0.0
                ],
                [
                    -0.0,
                    -0.0,
                    2.91209
                ]
            ],
            [
                [
                    2.53038,
                    -0.00021,
                    -0.0
                ],
                [
                    0.0,
                    2.53041,
                    0.0
                ],
                [
                    0.0,
                    -0.0,
                    2.91209
                ]
            ],
            [
                [
                    2.4908,
                    0.00054,
                    -0.00018
                ],
                [
                    0.0,
                    2.49021,
                    -0.00055
                ],
                [
                    0.0,
                    -0.0,
                    2.5498
                ]
            ],
            [
                [
                    2.4908,
                    0.00054,
                    0.00018
                ],
                [
                    0.0,
                    2.49021,
                    0.00055
                ],
                [
                    0.0,
                    -0.0,
                    2.55022
                ]
            ],
            [
                [
                    2.4908,
                    -0.00054,
                    0.00018
                ],
                [
                    0.0,
                    2.49122,
                    0.0009
                ],
                [
                    -0.0,
                    -0.0,
                    2.55022
                ]
            ],
            [
                [
                    3.4197,
                    -5e-05,
                    -0.0
                ],
                [
                    -0.0,
                    3.41919,
                    0.0
                ],
                [
                    0.0,
                    -0.0,
                    0.40382
                ]
            ],
            [
                [
                    3.4197,
                    5e-05,
                    -0.0
                ],
                [
                    -0.0,
                    3.41956,
                    0.0
                ],
                [
                    -0.0,
                    -0.0,
                    0.40382
                ]
            ],
            [
                [
                    -2.95856,
                    -0.0,
                    -0.0
                ],
                [
                    0.0,
                    -2.9586,
                    -9e-05
                ],
                [
                    -0.0,
                    -0.0,
                    -2.9042
                ]
            ],
            [
                [
                    -2.95856,
                    -0.0,
                    -0.0
                ],
                [
                    0.0,
                    -2.9586,
                    9e-05
                ],
                [
                    0.0,
                    -0.0,
                    -2.9042
                ]
            ],
            [
                [
                    -2.26245,
                    0.00011,
                    -0.0
                ],
                [
                    0.0,
                    -3.05244,
                    0.0
                ],
                [
                    0.0,
                    -4e-05,
                    -1.83724
                ]
            ],
            [
                [
                    -2.85523,
                    0.34222,
                    -0.0
                ],
                [
                    0.34188,
                    -2.45997,
                    0.0
                ],
                [
                    4e-05,
                    -2e-05,
                    -1.83724
                ]
            ],
            [
                [
                    -2.26245,
                    -0.00011,
                    0.0
                ],
                [
                    0.0,
                    -3.05261,
                    0.0
                ],
                [
                    -0.0,
                    4e-05,
                    -1.83724
                ]
            ],
            [
                [
                    -2.85523,
                    -0.34222,
                    -0.0
                ],
                [
                    -0.34223,
                    -2.46006,
                    0.0
                ],
                [
                    4e-05,
                    2e-05,
                    -1.83724
                ]
            ],
            [
                [
                    -2.85545,
                    0.34193,
                    -0.0
                ],
                [
                    0.34223,
                    -2.46006,
                    0.0
                ],
                [
                    -4e-05,
                    2e-05,
                    -1.83724
                ]
            ],
            [
                [
                    -2.85545,
                    -0.34193,
                    0.0
                ],
                [
                    -0.34188,
                    -2.45997,
                    0.0
                ],
                [
                    -4e-05,
                    -2e-05,
                    -1.83724
                ]
            ]
        ]
    },
    "band_gap": 1.3578999999999999,
    "is_direct": false,
    "formula": "Ba3BAsO3"
}