{
    "mp_id": "mp-9158",
    "nelements": 3,
    "nsites": 4,
    "elements": [
        "Cu",
        "Li",
        "O"
    ],
    "structure": {
        "@module": "pymatgen.core.structure",
        "@class": "Structure",
        "charge": null,
        "lattice": {
            "matrix": [
                [
                    2.84451413,
                    -1.34272898,
                    -0.002984
                ],
                [
                    2.84451413,
                    1.34272898,
                    -0.002984
                ],
                [
                    -2.82195063,
                    0.0,
                    4.77418975
                ]
            ],
            "a": 3.145503243323315,
            "b": 3.145503243323315,
            "c": 5.545835656342735,
            "alpha": 117.44956674559916,
            "beta": 117.44956674559916,
            "gamma": 50.53849438947478,
            "volume": 36.446577569241384
        },
        "sites": [
            {
                "species": [
                    {
                        "element": "Li",
                        "occu": 1
                    }
                ],
                "abc": [
                    0.0,
                    0.0,
                    0.5
                ],
                "xyz": [
                    -1.410975315,
                    0.0,
                    2.387094875
                ],
                "label": "Li",
                "properties": {}
            },
            {
                "species": [
                    {
                        "element": "Cu",
                        "occu": 1
                    }
                ],
                "abc": [
                    0.0,
                    0.0,
                    0.0
                ],
                "xyz": [
                    0.0,
                    0.0,
                    0.0
                ],
                "label": "Cu",
                "properties": {}
            },
            {
                "species": [
                    {
                        "element": "O",
                        "occu": 1
                    }
                ],
                "abc": [
                    0.57068502,
                    0.57068502,
                    0.24903586
                ],
                "xyz": [
                    2.543876304319073,
                    0.0,
                    1.1855386019950749
                ],
                "label": "O",
                "properties": {}
            },
            {
                "species": [
                    {
                        "element": "O",
                        "occu": 1
                    }
                ],
                "abc": [
                    0.42931498,
                    0.42931498,
                    0.75096414
                ],
                "xyz": [
                    0.32320132568092674,
                    0.0,
                    3.582683148004925
                ],
                "label": "O",
                "properties": {}
            }
        ]
    },
    "spacegroup": {
        "source": "spglib",
        "symbol": "C2/m",
        "number": 12,
        "point_group": "2/m",
        "crystal_system": "monoclinic",
        "hall": "-C 2y"
    },
    "dielectric": {
        "epsilon_ionic": [
            [
                4.69688245,
                -1e-08,
                -1.08933992
            ],
            [
                -1e-08,
                11.45412955,
                1e-08
            ],
            [
                -1.08933992,
                1e-08,
                5.3394624
            ]
        ],
        "epsilon_ionic_avg": 7.163491466666667,
        "epsilon_ionic_eig": [
            3.882439749877414,
            6.153905100122588,
            11.454129549999998
        ],
        "epsilon_electronic": [
            [
                3.58687073,
                0.0,
                -0.3815985
            ],
            [
                0.0,
                11.46207936,
                0.0
            ],
            [
                -0.38159594,
                0.0,
                6.84781352
            ]
        ],
        "epsilon_electronic_avg": 7.298921203333333,
        "epsilon_electronic_eig": [
            3.5428113225889675,
            6.891872927411033,
            11.46207936
        ]
    },
    "phonon": {
        "lowest_freq": -0.06802529964440023,
        "frequency": [
            -0.06802529964440023,
            -0.03781343080049026,
            -0.016032539325552455,
            4.71269500590118,
            6.058885853786114,
            7.148664827940793,
            9.492954519267691,
            11.133835768881339,
            14.9230769393067,
            17.623223517664226,
            18.143270378066177,
            19.63504587315193
        ]
    },
    "born_effective_charge": {
        "avg_abs_trace": 1.6539041666666665,
        "tensors": [
            [
                [
                    1.13364,
                    0.0,
                    -0.22444
                ],
                [
                    0.0,
                    1.24416,
                    0.0
                ],
                [
                    -0.27666,
                    0.0,
                    1.70058
                ]
            ],
            [
                [
                    1.12141,
                    0.0,
                    0.11801
                ],
                [
                    0.0,
                    4.12701,
                    0.0
                ],
                [
                    -0.30368,
                    0.0,
                    0.59664
                ]
            ],
            [
                [
                    -1.12753,
                    0.0,
                    0.05291
                ],
                [
                    0.00034,
                    -2.68558,
                    -0.00061
                ],
                [
                    0.29018,
                    0.0,
                    -1.14853
                ]
            ],
            [
                [
                    -1.12751,
                    0.0,
                    0.05352
                ],
                [
                    -0.00034,
                    -2.68558,
                    0.00061
                ],
                [
                    0.29016,
                    0.0,
                    -1.14868
                ]
            ]
        ]
    },
    "band_gap": 0.7267999999999999,
    "is_direct": false,
    "formula": "LiCuO2"
}