{
    "mp_id": "mp-996983",
    "nelements": 3,
    "nsites": 8,
    "elements": [
        "Ag",
        "Au",
        "O"
    ],
    "structure": {
        "@module": "pymatgen.core.structure",
        "@class": "Structure",
        "charge": null,
        "lattice": {
            "matrix": [
                [
                    5.43131687,
                    0.0,
                    0.00015622
                ],
                [
                    0.0,
                    3.88352567,
                    0.0
                ],
                [
                    -1.09853225,
                    0.0,
                    5.29298096
                ]
            ],
            "a": 5.431316872246664,
            "b": 3.88352567,
            "c": 5.405776590575362,
            "alpha": 90.0,
            "beta": 101.72335020163538,
            "gamma": 90.0,
            "volume": 111.64370622744374
        },
        "sites": [
            {
                "species": [
                    {
                        "element": "Ag",
                        "occu": 1
                    }
                ],
                "abc": [
                    0.5,
                    0.5,
                    0.0
                ],
                "xyz": [
                    2.715658435,
                    1.941762835,
                    7.811e-05
                ],
                "label": "Ag",
                "properties": {}
            },
            {
                "species": [
                    {
                        "element": "Ag",
                        "occu": 1
                    }
                ],
                "abc": [
                    0.5,
                    0.0,
                    0.5
                ],
                "xyz": [
                    2.16639231,
                    0.0,
                    2.64656859
                ],
                "label": "Ag",
                "properties": {}
            },
            {
                "species": [
                    {
                        "element": "Au",
                        "occu": 1
                    }
                ],
                "abc": [
                    0.0,
                    0.5,
                    0.5
                ],
                "xyz": [
                    -0.549266125,
                    1.941762835,
                    2.64649048
                ],
                "label": "Au",
                "properties": {}
            },
            {
                "species": [
                    {
                        "element": "Au",
                        "occu": 1
                    }
                ],
                "abc": [
                    0.0,
                    0.0,
                    0.0
                ],
                "xyz": [
                    0.0,
                    0.0,
                    0.0
                ],
                "label": "Au",
                "properties": {}
            },
            {
                "species": [
                    {
                        "element": "O",
                        "occu": 1
                    }
                ],
                "abc": [
                    0.20202343,
                    0.20081436,
                    0.76572477
                ],
                "xyz": [
                    0.2560799090254313,
                    0.7798677219646212,
                    4.052998188310615
                ],
                "label": "O",
                "properties": {}
            },
            {
                "species": [
                    {
                        "element": "O",
                        "occu": 1
                    }
                ],
                "abc": [
                    0.79797657,
                    0.70081436,
                    0.73427523
                ],
                "xyz": [
                    3.5274385859745685,
                    2.7216305569646213,
                    3.8866294716893863
                ],
                "label": "O",
                "properties": {}
            },
            {
                "species": [
                    {
                        "element": "O",
                        "occu": 1
                    }
                ],
                "abc": [
                    0.79797657,
                    0.79918564,
                    0.23427523
                ],
                "xyz": [
                    4.076704710974568,
                    3.1036579480353788,
                    1.2401389916893861
                ],
                "label": "O",
                "properties": {}
            },
            {
                "species": [
                    {
                        "element": "O",
                        "occu": 1
                    }
                ],
                "abc": [
                    0.20202343,
                    0.29918564,
                    0.26572477
                ],
                "xyz": [
                    0.8053460340254315,
                    1.1618951130353787,
                    1.406507708310614
                ],
                "label": "O",
                "properties": {}
            }
        ]
    },
    "spacegroup": {
        "source": "spglib",
        "symbol": "P2_1/c",
        "number": 14,
        "point_group": "2/m",
        "crystal_system": "monoclinic",
        "hall": "-P 2ybc"
    },
    "dielectric": {
        "epsilon_ionic": [
            [
                6.96176891,
                -4e-08,
                -4.30169194
            ],
            [
                -4e-08,
                2.38255831,
                5e-08
            ],
            [
                -4.30169194,
                5e-08,
                6.07802769
            ]
        ],
        "epsilon_ionic_avg": 5.14078497,
        "epsilon_ionic_eig": [
            10.844225205154459,
            2.195571394845542,
            2.38255831
        ],
        "epsilon_electronic": [
            [
                7.38746689,
                0.0,
                -1.35286181
            ],
            [
                0.0,
                6.86853095,
                0.0
            ],
            [
                -1.35286188,
                0.0,
                9.38454106
            ]
        ],
        "epsilon_electronic_avg": 7.880179633333334,
        "epsilon_electronic_eig": [
            6.704542859845356,
            10.067465090154645,
            6.86853095
        ]
    },
    "phonon": {
        "lowest_freq": -0.03164045612148001,
        "frequency": [
            -0.03164045612148001,
            -0.014732134564765588,
            -0.012418307711717551,
            0.9420515606639889,
            1.1600776435760385,
            1.9420207819713509,
            2.1168622098427075,
            3.677140361491233,
            4.232308757824244,
            4.386425389292262,
            5.625811013966666,
            5.7929398323725785,
            6.638022561345218,
            9.398027586370423,
            10.975782125319977,
            11.832609561556021,
            12.486993318184213,
            14.244878835480632,
            16.104472728297807,
            17.14863700157145,
            17.512603394341795,
            17.966809338030387,
            18.418335457351922,
            18.562080704760227
        ]
    },
    "born_effective_charge": {
        "avg_abs_trace": 1.5709,
        "tensors": [
            [
                [
                    1.67645,
                    0.38002,
                    -0.03832
                ],
                [
                    0.47179,
                    0.90567,
                    0.06941
                ],
                [
                    0.05836,
                    0.21937,
                    1.20911
                ]
            ],
            [
                [
                    1.67645,
                    -0.38002,
                    -0.03832
                ],
                [
                    -0.47179,
                    0.90567,
                    -0.06941
                ],
                [
                    0.05836,
                    -0.21937,
                    1.20911
                ]
            ],
            [
                [
                    0.65376,
                    -0.78819,
                    -0.60784
                ],
                [
                    -1.4891,
                    1.79173,
                    -0.14296
                ],
                [
                    -0.21992,
                    -0.66161,
                    3.18868
                ]
            ],
            [
                [
                    0.65376,
                    0.78819,
                    -0.60784
                ],
                [
                    1.4891,
                    1.79173,
                    0.14296
                ],
                [
                    -0.21992,
                    0.66161,
                    3.18868
                ]
            ],
            [
                [
                    -1.16519,
                    -0.23032,
                    0.32289
                ],
                [
                    -0.14249,
                    -1.34882,
                    0.93977
                ],
                [
                    0.08104,
                    1.08519,
                    -2.19902
                ]
            ],
            [
                [
                    -1.16501,
                    0.2308,
                    0.32327
                ],
                [
                    0.14249,
                    -1.34882,
                    -0.93977
                ],
                [
                    0.08053,
                    -1.08524,
                    -2.19878
                ]
            ],
            [
                [
                    -1.16501,
                    -0.2308,
                    0.32327
                ],
                [
                    -0.14202,
                    -1.34858,
                    0.9402
                ],
                [
                    0.08053,
                    1.08524,
                    -2.19878
                ]
            ],
            [
                [
                    -1.16519,
                    0.23032,
                    0.32289
                ],
                [
                    0.14202,
                    -1.34858,
                    -0.9402
                ],
                [
                    0.08104,
                    -1.08519,
                    -2.19902
                ]
            ]
        ]
    },
    "band_gap": 0.9285000000000005,
    "is_direct": false,
    "formula": "AgAuO2"
}