{
    "mp_id": "mp-978857",
    "nelements": 3,
    "nsites": 4,
    "elements": [
        "Hg",
        "O",
        "Sr"
    ],
    "structure": {
        "@module": "pymatgen.core.structure",
        "@class": "Structure",
        "charge": null,
        "lattice": {
            "matrix": [
                [
                    1.91232212,
                    1.10408007,
                    6.33775653
                ],
                [
                    -1.91232212,
                    1.10408007,
                    6.33775653
                ],
                [
                    0.0,
                    -2.20815914,
                    6.33775653
                ]
            ],
            "a": 6.7114176241067085,
            "b": 6.7114176241067085,
            "c": 6.711417482255382,
            "alpha": 33.11000524442693,
            "beta": 33.11000524442693,
            "gamma": 33.11000382219245,
            "volume": 80.28756556116768
        },
        "sites": [
            {
                "species": [
                    {
                        "element": "Sr",
                        "occu": 1
                    }
                ],
                "abc": [
                    0.5,
                    0.5,
                    0.5
                ],
                "xyz": [
                    0.0,
                    5.00000000069889e-07,
                    9.506634795
                ],
                "label": "Sr",
                "properties": {}
            },
            {
                "species": [
                    {
                        "element": "Hg",
                        "occu": 1
                    }
                ],
                "abc": [
                    0.0,
                    0.0,
                    0.0
                ],
                "xyz": [
                    0.0,
                    0.0,
                    0.0
                ],
                "label": "Hg",
                "properties": {}
            },
            {
                "species": [
                    {
                        "element": "O",
                        "occu": 1
                    }
                ],
                "abc": [
                    0.89608512,
                    0.89608512,
                    0.89608512
                ],
                "xyz": [
                    0.0,
                    8.960851203276832e-07,
                    17.0375079621475
                ],
                "label": "O",
                "properties": {}
            },
            {
                "species": [
                    {
                        "element": "O",
                        "occu": 1
                    }
                ],
                "abc": [
                    0.10391488,
                    0.10391488,
                    0.10391488
                ],
                "xyz": [
                    0.0,
                    1.0391488000638383e-07,
                    1.9757616278524992
                ],
                "label": "O",
                "properties": {}
            }
        ]
    },
    "spacegroup": {
        "source": "spglib",
        "symbol": "R-3m",
        "number": 166,
        "point_group": "-3m",
        "crystal_system": "trigonal",
        "hall": "-R 3 2\""
    },
    "dielectric": {
        "epsilon_ionic": [
            [
                3.1973971,
                1e-08,
                0.0
            ],
            [
                1e-08,
                3.19745332,
                1.025e-05
            ],
            [
                0.0,
                1.025e-05,
                3.96702002
            ]
        ],
        "epsilon_ionic_avg": 3.4539568133333334,
        "epsilon_ionic_eig": [
            3.1973970999982217,
            3.1974533198652577,
            3.9670200201365216
        ],
        "epsilon_electronic": [
            [
                3.43802727,
                0.0,
                0.0
            ],
            [
                0.0,
                3.43802755,
                2.4e-07
            ],
            [
                0.0,
                2.4e-07,
                4.64702661
            ]
        ],
        "epsilon_electronic_avg": 3.8410271433333336,
        "epsilon_electronic_eig": [
            4.647026610000047,
            3.4380275499999526,
            3.43802727
        ]
    },
    "phonon": {
        "lowest_freq": -0.00756258325372102,
        "frequency": [
            -0.00756258325372102,
            -0.0027090413155297205,
            -0.002709041202759137,
            2.7584116042531495,
            2.758411715005351,
            5.096262662507719,
            6.966965592411671,
            6.966965873050492,
            8.013516694162208,
            8.01351701439631,
            18.318068305222962,
            19.50596422338361
        ]
    },
    "born_effective_charge": {
        "avg_abs_trace": 1.8485583333333333,
        "tensors": [
            [
                [
                    2.51538,
                    0.0,
                    0.0
                ],
                [
                    0.0,
                    2.5154,
                    1e-05
                ],
                [
                    0.0,
                    0.0,
                    2.80578
                ]
            ],
            [
                [
                    0.25945,
                    0.0,
                    -0.0
                ],
                [
                    0.0,
                    0.25943,
                    -0.0
                ],
                [
                    0.0,
                    0.0,
                    2.73591
                ]
            ],
            [
                [
                    -1.38741,
                    -8e-05,
                    0.00019
                ],
                [
                    0.0,
                    -1.38753,
                    2e-05
                ],
                [
                    0.0,
                    -0.0,
                    -2.77083
                ]
            ],
            [
                [
                    -1.38741,
                    8e-05,
                    -0.00019
                ],
                [
                    0.0,
                    -1.38731,
                    -3e-05
                ],
                [
                    0.0,
                    -0.0,
                    -2.77086
                ]
            ]
        ]
    },
    "band_gap": 2.2751,
    "is_direct": false,
    "formula": "SrHgO2"
}