{
    "mp_id": "mp-9755",
    "nelements": 3,
    "nsites": 12,
    "elements": [
        "Ge",
        "Hf",
        "O"
    ],
    "structure": {
        "@module": "pymatgen.core.structure",
        "@class": "Structure",
        "charge": null,
        "lattice": {
            "matrix": [
                [
                    -2.45253786,
                    2.45253786,
                    5.26389478
                ],
                [
                    2.45253786,
                    -2.45253786,
                    5.26389478
                ],
                [
                    2.45253786,
                    2.45253786,
                    -5.26389478
                ]
            ],
            "a": 6.303845823334991,
            "b": 6.303845823334991,
            "c": 6.303845823334991,
            "alpha": 134.2086732018537,
            "beta": 134.2086732018537,
            "gamma": 66.76226069050955,
            "volume": 126.64808623009614
        },
        "sites": [
            {
                "species": [
                    {
                        "element": "Hf",
                        "occu": 1
                    }
                ],
                "abc": [
                    0.0,
                    0.0,
                    0.0
                ],
                "xyz": [
                    0.0,
                    0.0,
                    0.0
                ],
                "label": "Hf",
                "properties": {}
            },
            {
                "species": [
                    {
                        "element": "Hf",
                        "occu": 1
                    }
                ],
                "abc": [
                    0.75,
                    0.25,
                    0.5
                ],
                "xyz": [
                    -2.220446049250313e-16,
                    2.4525378600000005,
                    2.63194739
                ],
                "label": "Hf",
                "properties": {}
            },
            {
                "species": [
                    {
                        "element": "Ge",
                        "occu": 1
                    }
                ],
                "abc": [
                    0.5,
                    0.5,
                    0.0
                ],
                "xyz": [
                    0.0,
                    0.0,
                    5.26389478
                ],
                "label": "Ge",
                "properties": {}
            },
            {
                "species": [
                    {
                        "element": "Ge",
                        "occu": 1
                    }
                ],
                "abc": [
                    0.25,
                    0.75,
                    0.5
                ],
                "xyz": [
                    2.4525378600000005,
                    -2.220446049250313e-16,
                    2.63194739
                ],
                "label": "Ge",
                "properties": {}
            },
            {
                "species": [
                    {
                        "element": "O",
                        "occu": 1
                    }
                ],
                "abc": [
                    0.33909473,
                    0.93317747,
                    0.94155565
                ],
                "xyz": [
                    3.7662112907444456,
                    0.8521904670993727,
                    1.7408571212046091
                ],
                "label": "O",
                "properties": {}
            },
            {
                "species": [
                    {
                        "element": "O",
                        "occu": 1
                    }
                ],
                "abc": [
                    0.68317747,
                    0.24162182,
                    0.09408174
                ],
                "xyz": [
                    -0.8521929196372325,
                    1.3136709782065854,
                    4.372809775099388
                ],
                "label": "O",
                "properties": {}
            },
            {
                "species": [
                    {
                        "element": "O",
                        "occu": 1
                    }
                ],
                "abc": [
                    0.14754008,
                    0.58909473,
                    0.90591826
                ],
                "xyz": [
                    3.304728327099373,
                    1.1388693343312748,
                    -0.8910902687953905
                ],
                "label": "O",
                "properties": {}
            },
            {
                "species": [
                    {
                        "element": "O",
                        "occu": 1
                    }
                ],
                "abc": [
                    0.99162182,
                    0.39754008,
                    0.05844435
                ],
                "xyz": [
                    -1.3136709782065852,
                    1.600344940362767,
                    7.00475716509939
                ],
                "label": "O",
                "properties": {}
            },
            {
                "species": [
                    {
                        "element": "O",
                        "occu": 1
                    }
                ],
                "abc": [
                    0.75837818,
                    0.85245992,
                    0.44155565
                ],
                "xyz": [
                    1.3136709782065856,
                    0.8521929196372326,
                    6.154979784900611
                ],
                "label": "O",
                "properties": {}
            },
            {
                "species": [
                    {
                        "element": "O",
                        "occu": 1
                    }
                ],
                "abc": [
                    0.60245992,
                    0.66090527,
                    0.59408174
                ],
                "xyz": [
                    1.6003473929006276,
                    1.3136685256687255,
                    3.523037658795391
                ],
                "label": "O",
                "properties": {}
            },
            {
                "species": [
                    {
                        "element": "O",
                        "occu": 1
                    }
                ],
                "abc": [
                    0.06682253,
                    0.00837818,
                    0.40591826
                ],
                "xyz": [
                    0.8521929196372325,
                    1.1388668817934144,
                    -1.7408623850993892
                ],
                "label": "O",
                "properties": {}
            },
            {
                "species": [
                    {
                        "element": "O",
                        "occu": 1
                    }
                ],
                "abc": [
                    0.41090527,
                    0.31682253,
                    0.55844435
                ],
                "xyz": [
                    1.1388644292555548,
                    1.6003473929006276,
                    0.8910902687953905
                ],
                "label": "O",
                "properties": {}
            }
        ]
    },
    "spacegroup": {
        "source": "spglib",
        "symbol": "I4_1/a",
        "number": 88,
        "point_group": "4/m",
        "crystal_system": "tetragonal",
        "hall": "I 4bw -1bw"
    },
    "dielectric": {
        "epsilon_ionic": [
            [
                13.06541805,
                -0.00013952,
                0.0
            ],
            [
                -0.00013952,
                13.06520144,
                0.0
            ],
            [
                0.0,
                0.0,
                10.44179422
            ]
        ],
        "epsilon_ionic_avg": 12.19080457,
        "epsilon_ionic_eig": [
            13.065486368337712,
            13.065133121662287,
            10.44179422
        ],
        "epsilon_electronic": [
            [
                4.59438639,
                1.14e-06,
                -0.0
            ],
            [
                -1.14e-06,
                4.59438639,
                0.0
            ],
            [
                -0.0,
                0.0,
                4.36446554
            ]
        ],
        "epsilon_electronic_avg": 4.517746106666667,
        "epsilon_electronic_eig": [
            4.59438639,
            4.59438639,
            4.36446554
        ]
    },
    "phonon": {
        "lowest_freq": -0.019651729712909325,
        "frequency": [
            -0.019651729712909325,
            -0.018272327501958147,
            -0.018272327501958147,
            4.026068852456064,
            4.370412522097318,
            4.370412522097318,
            4.826664742576765,
            5.592879567968778,
            5.592879567968778,
            6.926322039365647,
            6.926322039365647,
            7.66336765349549,
            7.767648555048521,
            7.795814804115892,
            7.795814804115892,
            8.354249902738296,
            10.040117025817002,
            10.859777562712338,
            10.859777562712338,
            11.720309478674748,
            11.806125415460201,
            13.47734857308836,
            13.47734857308836,
            15.249884069033445,
            15.249884069033445,
            15.400196056296116,
            16.65204878703289,
            18.922135042735867,
            20.405216746201372,
            20.405216746201372,
            20.621824729306027,
            21.678453043350952,
            22.444797995162304,
            23.046719164864765,
            23.046719164864765,
            23.289602451995997
        ]
    },
    "born_effective_charge": {
        "avg_abs_trace": 3.029801111111111,
        "tensors": [
            [
                [
                    5.10707,
                    0.00059,
                    -9e-05
                ],
                [
                    -0.00063,
                    5.10711,
                    -0.00017
                ],
                [
                    0.0,
                    -0.0,
                    5.1717
                ]
            ],
            [
                [
                    5.10707,
                    0.00059,
                    9e-05
                ],
                [
                    -0.00063,
                    5.10711,
                    0.00017
                ],
                [
                    0.0,
                    -0.0,
                    5.1717
                ]
            ],
            [
                [
                    4.12008,
                    0.037,
                    -3e-05
                ],
                [
                    -0.03709,
                    4.12004,
                    -5e-05
                ],
                [
                    0.0,
                    -0.0,
                    3.64221
                ]
            ],
            [
                [
                    4.12008,
                    0.037,
                    3e-05
                ],
                [
                    -0.03709,
                    4.12004,
                    5e-05
                ],
                [
                    0.0,
                    -0.0,
                    3.64221
                ]
            ],
            [
                [
                    -2.33373,
                    -0.4847,
                    0.32883
                ],
                [
                    -0.46603,
                    -2.27981,
                    -0.32945
                ],
                [
                    0.36958,
                    -0.2051,
                    -2.20348
                ]
            ],
            [
                [
                    -2.27986,
                    0.466,
                    0.32929
                ],
                [
                    0.48488,
                    -2.33371,
                    0.32885
                ],
                [
                    0.2051,
                    0.36958,
                    -2.20348
                ]
            ],
            [
                [
                    -2.27985,
                    0.46599,
                    -0.32941
                ],
                [
                    0.48481,
                    -2.33372,
                    -0.32887
                ],
                [
                    -0.2051,
                    -0.36958,
                    -2.20348
                ]
            ],
            [
                [
                    -2.33371,
                    -0.48488,
                    -0.32895
                ],
                [
                    -0.46594,
                    -2.27992,
                    0.32942
                ],
                [
                    -0.36958,
                    0.2051,
                    -2.20348
                ]
            ],
            [
                [
                    -2.33373,
                    -0.4847,
                    -0.32883
                ],
                [
                    -0.46603,
                    -2.27981,
                    0.32945
                ],
                [
                    -0.36959,
                    0.2051,
                    -2.20347
                ]
            ],
            [
                [
                    -2.27986,
                    0.466,
                    -0.32929
                ],
                [
                    0.48488,
                    -2.33371,
                    -0.32885
                ],
                [
                    -0.2051,
                    -0.36959,
                    -2.20347
                ]
            ],
            [
                [
                    -2.27985,
                    0.46599,
                    0.32941
                ],
                [
                    0.48481,
                    -2.33372,
                    0.32887
                ],
                [
                    0.2051,
                    0.36959,
                    -2.20347
                ]
            ],
            [
                [
                    -2.33371,
                    -0.48488,
                    0.32895
                ],
                [
                    -0.46594,
                    -2.27992,
                    -0.32942
                ],
                [
                    0.36959,
                    -0.2051,
                    -2.20347
                ]
            ]
        ]
    },
    "band_gap": 3.8980000000000006,
    "is_direct": false,
    "formula": "HfGeO4"
}