{
    "mp_id": "mp-9230",
    "nelements": 4,
    "nsites": 22,
    "elements": [
        "Al",
        "As",
        "K",
        "O"
    ],
    "structure": {
        "@module": "pymatgen.core.structure",
        "@class": "Structure",
        "charge": null,
        "lattice": {
            "matrix": [
                [
                    6.23528633,
                    -0.00205452,
                    -0.00030025
                ],
                [
                    -1.38332337,
                    6.18078335,
                    0.00119286
                ],
                [
                    -2.09453213,
                    -1.43954766,
                    7.79712535
                ]
            ],
            "a": 6.235286675710055,
            "b": 6.333693060809021,
            "c": 8.20088568586506,
            "alpha": 96.6230564042015,
            "beta": 104.79676035708297,
            "gamma": 102.6343694230695,
            "volume": 300.47712205401933
        },
        "sites": [
            {
                "species": [
                    {
                        "element": "K",
                        "occu": 1
                    }
                ],
                "abc": [
                    0.0,
                    0.0,
                    0.5
                ],
                "xyz": [
                    -1.047266065,
                    -0.71977383,
                    3.898562675
                ],
                "label": "K",
                "properties": {}
            },
            {
                "species": [
                    {
                        "element": "K",
                        "occu": 1
                    }
                ],
                "abc": [
                    0.0,
                    0.0,
                    0.0
                ],
                "xyz": [
                    0.0,
                    0.0,
                    0.0
                ],
                "label": "K",
                "properties": {}
            },
            {
                "species": [
                    {
                        "element": "Al",
                        "occu": 1
                    }
                ],
                "abc": [
                    0.6234048,
                    0.30902535,
                    0.77348283
                ],
                "xyz": [
                    1.8395407994806265,
                    0.7952725424015485,
                    6.031124028270541
                ],
                "label": "Al",
                "properties": {}
            },
            {
                "species": [
                    {
                        "element": "Al",
                        "occu": 1
                    }
                ],
                "abc": [
                    0.3765952,
                    0.69097465,
                    0.22651717
                ],
                "xyz": [
                    0.9178900305193735,
                    3.9439086275984514,
                    1.7668939317294585
                ],
                "label": "Al",
                "properties": {}
            },
            {
                "species": [
                    {
                        "element": "As",
                        "occu": 1
                    }
                ],
                "abc": [
                    0.17295384,
                    0.46866754,
                    0.81131391
                ],
                "xyz": [
                    -1.269225098580331,
                    1.7284521501281516,
                    6.326423379839922
                ],
                "label": "As",
                "properties": {}
            },
            {
                "species": [
                    {
                        "element": "As",
                        "occu": 1
                    }
                ],
                "abc": [
                    0.82704616,
                    0.53133246,
                    0.18868609
                ],
                "xyz": [
                    4.026655928580331,
                    3.0107290198718486,
                    1.4715945801600772
                ],
                "label": "As",
                "properties": {}
            },
            {
                "species": [
                    {
                        "element": "As",
                        "occu": 1
                    }
                ],
                "abc": [
                    0.51174545,
                    0.7532133,
                    0.6636854
                ],
                "xyz": [
                    0.7588314538279757,
                    3.698990067830456,
                    5.175583083210565
                ],
                "label": "As",
                "properties": {}
            },
            {
                "species": [
                    {
                        "element": "As",
                        "occu": 1
                    }
                ],
                "abc": [
                    0.48825455,
                    0.2467867,
                    0.3363146
                ],
                "xyz": [
                    1.9985993761720247,
                    1.040191102169543,
                    2.622434876789435
                ],
                "label": "As",
                "properties": {}
            },
            {
                "species": [
                    {
                        "element": "O",
                        "occu": 1
                    }
                ],
                "abc": [
                    0.90237233,
                    0.30851085,
                    0.7207779
                ],
                "xyz": [
                    3.690087114971757,
                    0.8673906436502019,
                    5.620092708770214
                ],
                "label": "O",
                "properties": {}
            },
            {
                "species": [
                    {
                        "element": "O",
                        "occu": 1
                    }
                ],
                "abc": [
                    0.09762767,
                    0.69148915,
                    0.2792221
                ],
                "xyz": [
                    -0.9326562849717575,
                    3.8717905263497974,
                    2.1779252512297864
                ],
                "label": "O",
                "properties": {}
            },
            {
                "species": [
                    {
                        "element": "O",
                        "occu": 1
                    }
                ],
                "abc": [
                    0.33693161,
                    0.28719618,
                    0.82027657
                ],
                "xyz": [
                    -0.014515756942029334,
                    0.5935779178998997,
                    6.396040659077421
                ],
                "label": "O",
                "properties": {}
            },
            {
                "species": [
                    {
                        "element": "O",
                        "occu": 1
                    }
                ],
                "abc": [
                    0.66306839,
                    0.71280382,
                    0.17972343
                ],
                "xyz": [
                    2.771946586942029,
                    4.1456032521001,
                    1.4019773009225782
                ],
                "label": "O",
                "properties": {}
            },
            {
                "species": [
                    {
                        "element": "O",
                        "occu": 1
                    }
                ],
                "abc": [
                    0.21443204,
                    0.65256804,
                    0.9885193
                ],
                "xyz": [
                    -1.6361528874961908,
                    2.609920476279475,
                    7.708322932086439
                ],
                "label": "O",
                "properties": {}
            },
            {
                "species": [
                    {
                        "element": "O",
                        "occu": 1
                    }
                ],
                "abc": [
                    0.78556796,
                    0.34743196,
                    0.0114807
                ],
                "xyz": [
                    4.39358371749619,
                    2.1292606937205245,
                    0.0896950279135606
                ],
                "label": "O",
                "properties": {}
            },
            {
                "species": [
                    {
                        "element": "O",
                        "occu": 1
                    }
                ],
                "abc": [
                    0.21947868,
                    0.63055906,
                    0.65039806
                ],
                "xyz": [
                    -0.8660343046924556,
                    2.9606190105604773,
                    5.071921471423463
                ],
                "label": "O",
                "properties": {}
            },
            {
                "species": [
                    {
                        "element": "O",
                        "occu": 1
                    }
                ],
                "abc": [
                    0.78052132,
                    0.36944094,
                    0.34960194
                ],
                "xyz": [
                    3.623465134692456,
                    1.7785621594395222,
                    2.726096488576537
                ],
                "label": "O",
                "properties": {}
            },
            {
                "species": [
                    {
                        "element": "O",
                        "occu": 1
                    }
                ],
                "abc": [
                    0.41979094,
                    0.99248009,
                    0.22073292
                ],
                "xyz": [
                    0.7822636137944272,
                    5.815686388125486,
                    1.7221400936819444
                ],
                "label": "O",
                "properties": {}
            },
            {
                "species": [
                    {
                        "element": "O",
                        "occu": 1
                    }
                ],
                "abc": [
                    0.58020906,
                    0.00751991,
                    0.77926708
                ],
                "xyz": [
                    1.9751672162055733,
                    -1.0765052181254853,
                    6.075877866318056
                ],
                "label": "O",
                "properties": {}
            },
            {
                "species": [
                    {
                        "element": "O",
                        "occu": 1
                    }
                ],
                "abc": [
                    0.4539413,
                    0.25046223,
                    0.5341152
                ],
                "xyz": [
                    1.3652622789297377,
                    0.7782358631777624,
                    4.164725636240673
                ],
                "label": "O",
                "properties": {}
            },
            {
                "species": [
                    {
                        "element": "O",
                        "occu": 1
                    }
                ],
                "abc": [
                    0.5460587,
                    0.74953777,
                    0.4658848
                ],
                "xyz": [
                    1.3921685510702622,
                    3.960945306822237,
                    3.6332923237593273
                ],
                "label": "O",
                "properties": {}
            },
            {
                "species": [
                    {
                        "element": "O",
                        "occu": 1
                    }
                ],
                "abc": [
                    0.319106,
                    0.38237697,
                    0.21628905
                ],
                "xyz": [
                    1.0077419162780146,
                    2.051375204129206,
                    1.6867931452983518
                ],
                "label": "O",
                "properties": {}
            },
            {
                "species": [
                    {
                        "element": "O",
                        "occu": 1
                    }
                ],
                "abc": [
                    0.680894,
                    0.61762303,
                    0.78371095
                ],
                "xyz": [
                    1.749688913721985,
                    2.687805965870793,
                    6.111224814701648
                ],
                "label": "O",
                "properties": {}
            }
        ]
    },
    "spacegroup": {
        "source": "spglib",
        "symbol": "P-1",
        "number": 2,
        "point_group": "-1",
        "crystal_system": "triclinic",
        "hall": "-P 1"
    },
    "dielectric": {
        "epsilon_ionic": [
            [
                6.02537306,
                2.60910622,
                -3.14835224
            ],
            [
                2.60910622,
                10.29647754,
                -7.23396808
            ],
            [
                -3.14835224,
                -7.23396808,
                12.0092956
            ]
        ],
        "epsilon_ionic_avg": 9.443715399999995,
        "epsilon_ionic_eig": [
            19.66209741521046,
            4.819898178228904,
            3.849150606560619
        ],
        "epsilon_electronic": [
            [
                2.9937412,
                0.07178483,
                -0.09696962
            ],
            [
                0.07178495,
                3.01493694,
                0.04322521
            ],
            [
                -0.09696996,
                0.04322501,
                3.01772153
            ]
        ],
        "epsilon_electronic_avg": 3.0087998899999993,
        "epsilon_electronic_eig": [
            2.8630301642856155,
            3.1073756584863252,
            3.055993847228058
        ]
    },
    "phonon": {
        "lowest_freq": -0.1257909161631986,
        "frequency": [
            -0.1257909161631986,
            -0.0856013878616852,
            -0.04609966002465772,
            0.7383585281557552,
            2.022677447673275,
            2.633493664994737,
            2.866906777806099,
            3.1524355246060254,
            3.260151392048182,
            3.741421520558857,
            3.806590061539381,
            4.156718533997811,
            4.339277362174788,
            4.448157068950668,
            4.9188682427556385,
            5.198116405958964,
            5.289632973016374,
            5.476780933350971,
            5.815747154326945,
            5.881421580753653,
            6.1297498339551035,
            6.633353253280388,
            6.72537342286893,
            6.870028941174404,
            7.1691362264816565,
            7.429528605746005,
            7.9616215789633396,
            7.998016294766961,
            8.588436729266531,
            8.615987987358388,
            9.19642668024835,
            9.23649165384297,
            9.33924783831813,
            9.845645087171707,
            9.922959756505547,
            10.350125377946862,
            10.848326838896538,
            11.27710480140124,
            12.074335231579928,
            12.0896877507263,
            12.590395901176713,
            12.825637793180379,
            13.436674892854604,
            14.211871963863308,
            14.233187133768755,
            14.594901036627583,
            14.645521056243986,
            14.671220585528387,
            14.87167504192175,
            14.87282525780881,
            16.998804487856937,
            17.5238447079202,
            20.88910949927135,
            21.02272811487579,
            25.391351247122323,
            25.489454394688302,
            25.543422688432138,
            25.59416983751155,
            25.693081664901253,
            26.000665702427874,
            26.21175653427525,
            26.265672503356573,
            26.616525184153826,
            26.895901236767,
            28.107340395153983,
            28.906390704802497
        ]
    },
    "born_effective_charge": {
        "avg_abs_trace": 2.0695954545454542,
        "tensors": [
            [
                [
                    1.29786,
                    0.06075,
                    0.06254
                ],
                [
                    -0.00705,
                    1.31461,
                    0.24905
                ],
                [
                    -0.06195,
                    0.09254,
                    1.14086
                ]
            ],
            [
                [
                    1.25289,
                    -5e-05,
                    0.13716
                ],
                [
                    -0.01359,
                    1.36667,
                    -0.04639
                ],
                [
                    0.13555,
                    0.07126,
                    1.12794
                ]
            ],
            [
                [
                    3.37134,
                    -0.32588,
                    -0.5019
                ],
                [
                    -0.11709,
                    3.35193,
                    0.08631
                ],
                [
                    0.50384,
                    0.00112,
                    3.61088
                ]
            ],
            [
                [
                    3.37131,
                    -0.32589,
                    -0.50192
                ],
                [
                    -0.1171,
                    3.35193,
                    0.08634
                ],
                [
                    0.50386,
                    0.00116,
                    3.61088
                ]
            ],
            [
                [
                    3.70479,
                    0.522,
                    -0.45261
                ],
                [
                    0.17117,
                    2.93679,
                    -0.39159
                ],
                [
                    -0.34271,
                    0.1491,
                    3.36064
                ]
            ],
            [
                [
                    3.7048,
                    0.52213,
                    -0.45251
                ],
                [
                    0.17117,
                    2.9368,
                    -0.3916
                ],
                [
                    -0.34272,
                    0.14909,
                    3.36055
                ]
            ],
            [
                [
                    2.94596,
                    0.10538,
                    0.11646
                ],
                [
                    0.39364,
                    3.8979,
                    0.32787
                ],
                [
                    -0.51969,
                    -0.1715,
                    3.21766
                ]
            ],
            [
                [
                    2.94603,
                    0.10541,
                    0.11652
                ],
                [
                    0.39366,
                    3.89791,
                    0.32783
                ],
                [
                    -0.51966,
                    -0.17152,
                    3.21772
                ]
            ],
            [
                [
                    -2.39626,
                    -0.37592,
                    -0.03757
                ],
                [
                    -0.37945,
                    -1.25981,
                    -0.17398
                ],
                [
                    -0.17277,
                    -0.20765,
                    -1.31564
                ]
            ],
            [
                [
                    -2.39628,
                    -0.37594,
                    -0.03769
                ],
                [
                    -0.37947,
                    -1.25985,
                    -0.174
                ],
                [
                    -0.17278,
                    -0.20788,
                    -1.31543
                ]
            ],
            [
                [
                    -2.11066,
                    0.22595,
                    0.22953
                ],
                [
                    0.33348,
                    -1.28128,
                    -0.02465
                ],
                [
                    0.20396,
                    -0.04343,
                    -1.23237
                ]
            ],
            [
                [
                    -2.11059,
                    0.2259,
                    0.22962
                ],
                [
                    0.33353,
                    -1.28134,
                    -0.02465
                ],
                [
                    0.20415,
                    -0.0438,
                    -1.23232
                ]
            ],
            [
                [
                    -1.26463,
                    0.14504,
                    0.17164
                ],
                [
                    0.14986,
                    -1.15487,
                    -0.23578
                ],
                [
                    0.03062,
                    -0.36005,
                    -2.43621
                ]
            ],
            [
                [
                    -1.26438,
                    0.1449,
                    0.17143
                ],
                [
                    0.14972,
                    -1.15485,
                    -0.23594
                ],
                [
                    0.03076,
                    -0.36036,
                    -2.43656
                ]
            ],
            [
                [
                    -1.94542,
                    -0.78491,
                    0.42379
                ],
                [
                    -0.7986,
                    -1.82207,
                    0.61246
                ],
                [
                    0.41066,
                    0.58533,
                    -1.30991
                ]
            ],
            [
                [
                    -1.94551,
                    -0.78516,
                    0.42382
                ],
                [
                    -0.79833,
                    -1.82231,
                    0.61256
                ],
                [
                    0.41053,
                    0.58517,
                    -1.30988
                ]
            ],
            [
                [
                    -1.08406,
                    0.06841,
                    0.01455
                ],
                [
                    0.12407,
                    -2.84832,
                    -0.46809
                ],
                [
                    -0.05054,
                    -0.3609,
                    -1.25105
                ]
            ],
            [
                [
                    -1.08388,
                    0.06828,
                    0.01441
                ],
                [
                    0.1239,
                    -2.8486,
                    -0.4682
                ],
                [
                    -0.05047,
                    -0.36089,
                    -1.25084
                ]
            ],
            [
                [
                    -1.12907,
                    -0.01994,
                    0.15816
                ],
                [
                    -0.06958,
                    -1.26637,
                    -0.02812
                ],
                [
                    0.15159,
                    0.07837,
                    -2.46623
                ]
            ],
            [
                [
                    -1.12896,
                    -0.0199,
                    0.15818
                ],
                [
                    -0.06946,
                    -1.26662,
                    -0.02834
                ],
                [
                    0.15173,
                    0.07826,
                    -2.46628
                ]
            ],
            [
                [
                    -1.36763,
                    0.40967,
                    -0.22172
                ],
                [
                    0.20272,
                    -1.89423,
                    0.19443
                ],
                [
                    -0.2521,
                    0.24832,
                    -1.31238
                ]
            ],
            [
                [
                    -1.36765,
                    0.40977,
                    -0.22188
                ],
                [
                    0.20282,
                    -1.89402,
                    0.19448
                ],
                [
                    -0.25187,
                    0.24829,
                    -1.31203
                ]
            ]
        ]
    },
    "band_gap": 3.1599,
    "is_direct": false,
    "formula": "KAlAs2O7"
}