{
    "mp_id": "mp-9338",
    "nelements": 4,
    "nsites": 24,
    "elements": [
        "Ba",
        "Mg",
        "O",
        "Si"
    ],
    "structure": {
        "@module": "pymatgen.core.structure",
        "@class": "Structure",
        "charge": null,
        "lattice": {
            "matrix": [
                [
                    8.22136923,
                    0.0,
                    0.0
                ],
                [
                    0.0,
                    8.22136923,
                    0.0
                ],
                [
                    0.0,
                    0.0,
                    5.40839903
                ]
            ],
            "a": 8.22136923,
            "b": 8.22136923,
            "c": 5.40839903,
            "alpha": 90.0,
            "beta": 90.0,
            "gamma": 90.0,
            "volume": 365.55862298409994
        },
        "sites": [
            {
                "species": [
                    {
                        "element": "Ba",
                        "occu": 1
                    }
                ],
                "abc": [
                    0.16439143,
                    0.66439143,
                    0.51011016
                ],
                "xyz": [
                    1.351522644277699,
                    5.462207259277699,
                    2.7588792945371448
                ],
                "label": "Ba",
                "properties": {}
            },
            {
                "species": [
                    {
                        "element": "Ba",
                        "occu": 1
                    }
                ],
                "abc": [
                    0.66439143,
                    0.83560857,
                    0.48988984
                ],
                "xyz": [
                    5.462207259277699,
                    6.869846585722302,
                    2.6495197354628552
                ],
                "label": "Ba",
                "properties": {}
            },
            {
                "species": [
                    {
                        "element": "Ba",
                        "occu": 1
                    }
                ],
                "abc": [
                    0.33560857,
                    0.16439143,
                    0.48988984
                ],
                "xyz": [
                    2.7591619707223014,
                    1.351522644277699,
                    2.6495197354628552
                ],
                "label": "Ba",
                "properties": {}
            },
            {
                "species": [
                    {
                        "element": "Ba",
                        "occu": 1
                    }
                ],
                "abc": [
                    0.83560857,
                    0.33560857,
                    0.51011016
                ],
                "xyz": [
                    6.869846585722302,
                    2.7591619707223014,
                    2.7588792945371448
                ],
                "label": "Ba",
                "properties": {}
            },
            {
                "species": [
                    {
                        "element": "Mg",
                        "occu": 1
                    }
                ],
                "abc": [
                    0.0,
                    0.0,
                    0.0
                ],
                "xyz": [
                    0.0,
                    0.0,
                    0.0
                ],
                "label": "Mg",
                "properties": {}
            },
            {
                "species": [
                    {
                        "element": "Mg",
                        "occu": 1
                    }
                ],
                "abc": [
                    0.5,
                    0.5,
                    0.0
                ],
                "xyz": [
                    4.110684615,
                    4.110684615,
                    0.0
                ],
                "label": "Mg",
                "properties": {}
            },
            {
                "species": [
                    {
                        "element": "Si",
                        "occu": 1
                    }
                ],
                "abc": [
                    0.36262629,
                    0.86262629,
                    0.95472306
                ],
                "xyz": [
                    2.981284622595057,
                    7.091969237595057,
                    5.163523271622632
                ],
                "label": "Si",
                "properties": {}
            },
            {
                "species": [
                    {
                        "element": "Si",
                        "occu": 1
                    }
                ],
                "abc": [
                    0.63737371,
                    0.13737371,
                    0.95472306
                ],
                "xyz": [
                    5.240084607404944,
                    1.1293999924049434,
                    5.163523271622632
                ],
                "label": "Si",
                "properties": {}
            },
            {
                "species": [
                    {
                        "element": "Si",
                        "occu": 1
                    }
                ],
                "abc": [
                    0.86262629,
                    0.63737371,
                    0.04527694
                ],
                "xyz": [
                    7.091969237595057,
                    5.240084607404944,
                    0.24487575837736822
                ],
                "label": "Si",
                "properties": {}
            },
            {
                "species": [
                    {
                        "element": "Si",
                        "occu": 1
                    }
                ],
                "abc": [
                    0.13737371,
                    0.36262629,
                    0.04527694
                ],
                "xyz": [
                    1.1293999924049434,
                    2.981284622595057,
                    0.24487575837736822
                ],
                "label": "Si",
                "properties": {}
            },
            {
                "species": [
                    {
                        "element": "O",
                        "occu": 1
                    }
                ],
                "abc": [
                    0.42246742,
                    0.69353856,
                    0.82018975
                ],
                "xyz": [
                    3.473260647465487,
                    5.701836577002509,
                    4.435913448315943
                ],
                "label": "O",
                "properties": {}
            },
            {
                "species": [
                    {
                        "element": "O",
                        "occu": 1
                    }
                ],
                "abc": [
                    0.57753258,
                    0.30646144,
                    0.82018975
                ],
                "xyz": [
                    4.748108582534513,
                    2.519532652997491,
                    4.435913448315943
                ],
                "label": "O",
                "properties": {}
            },
            {
                "species": [
                    {
                        "element": "O",
                        "occu": 1
                    }
                ],
                "abc": [
                    0.30646144,
                    0.42246742,
                    0.17981025
                ],
                "xyz": [
                    2.519532652997491,
                    3.473260647465487,
                    0.9724855816840575
                ],
                "label": "O",
                "properties": {}
            },
            {
                "species": [
                    {
                        "element": "O",
                        "occu": 1
                    }
                ],
                "abc": [
                    0.69353856,
                    0.57753258,
                    0.17981025
                ],
                "xyz": [
                    5.701836577002509,
                    4.748108582534513,
                    0.9724855816840575
                ],
                "label": "O",
                "properties": {}
            },
            {
                "species": [
                    {
                        "element": "O",
                        "occu": 1
                    }
                ],
                "abc": [
                    0.19353856,
                    0.92246742,
                    0.82018975
                ],
                "xyz": [
                    1.591151962002509,
                    7.5839452624654875,
                    4.435913448315943
                ],
                "label": "O",
                "properties": {}
            },
            {
                "species": [
                    {
                        "element": "O",
                        "occu": 1
                    }
                ],
                "abc": [
                    0.92246742,
                    0.80646144,
                    0.17981025
                ],
                "xyz": [
                    7.5839452624654875,
                    6.630217267997492,
                    0.9724855816840575
                ],
                "label": "O",
                "properties": {}
            },
            {
                "species": [
                    {
                        "element": "O",
                        "occu": 1
                    }
                ],
                "abc": [
                    0.07753258,
                    0.19353856,
                    0.17981025
                ],
                "xyz": [
                    0.6374239675345135,
                    1.591151962002509,
                    0.9724855816840575
                ],
                "label": "O",
                "properties": {}
            },
            {
                "species": [
                    {
                        "element": "O",
                        "occu": 1
                    }
                ],
                "abc": [
                    0.80646144,
                    0.07753258,
                    0.82018975
                ],
                "xyz": [
                    6.630217267997492,
                    0.6374239675345135,
                    4.435913448315943
                ],
                "label": "O",
                "properties": {}
            },
            {
                "species": [
                    {
                        "element": "O",
                        "occu": 1
                    }
                ],
                "abc": [
                    0.35979656,
                    0.85979656,
                    0.25383414
                ],
                "xyz": [
                    2.958020367443849,
                    7.068704982443849,
                    1.3728363165568842
                ],
                "label": "O",
                "properties": {}
            },
            {
                "species": [
                    {
                        "element": "O",
                        "occu": 1
                    }
                ],
                "abc": [
                    0.85979656,
                    0.64020344,
                    0.74616586
                ],
                "xyz": [
                    7.068704982443849,
                    5.2633488625561515,
                    4.035562713443116
                ],
                "label": "O",
                "properties": {}
            },
            {
                "species": [
                    {
                        "element": "O",
                        "occu": 1
                    }
                ],
                "abc": [
                    0.0,
                    0.5,
                    0.14156453
                ],
                "xyz": [
                    0.0,
                    4.110684615,
                    0.7656374667344059
                ],
                "label": "O",
                "properties": {}
            },
            {
                "species": [
                    {
                        "element": "O",
                        "occu": 1
                    }
                ],
                "abc": [
                    0.5,
                    0.0,
                    0.85843547
                ],
                "xyz": [
                    4.110684615,
                    0.0,
                    4.642761563265594
                ],
                "label": "O",
                "properties": {}
            },
            {
                "species": [
                    {
                        "element": "O",
                        "occu": 1
                    }
                ],
                "abc": [
                    0.64020344,
                    0.14020344,
                    0.25383414
                ],
                "xyz": [
                    5.2633488625561515,
                    1.1526642475561513,
                    1.3728363165568842
                ],
                "label": "O",
                "properties": {}
            },
            {
                "species": [
                    {
                        "element": "O",
                        "occu": 1
                    }
                ],
                "abc": [
                    0.14020344,
                    0.35979656,
                    0.74616586
                ],
                "xyz": [
                    1.1526642475561513,
                    2.958020367443849,
                    4.035562713443116
                ],
                "label": "O",
                "properties": {}
            }
        ]
    },
    "spacegroup": {
        "source": "spglib",
        "symbol": "P-42_1m",
        "number": 113,
        "point_group": "-42m",
        "crystal_system": "tetragonal",
        "hall": "P -4 2ab"
    },
    "dielectric": {
        "epsilon_ionic": [
            [
                5.14125828,
                1e-08,
                0.0
            ],
            [
                1e-08,
                5.14126107,
                0.0
            ],
            [
                0.0,
                0.0,
                4.5262657
            ]
        ],
        "epsilon_ionic_avg": 4.936261683333333,
        "epsilon_ionic_eig": [
            5.141258279964158,
            5.141261070035841,
            4.5262657
        ],
        "epsilon_electronic": [
            [
                2.95823166,
                0.0,
                0.0
            ],
            [
                0.0,
                2.95823166,
                -0.0
            ],
            [
                0.0,
                0.0,
                3.07912826
            ]
        ],
        "epsilon_electronic_avg": 2.9985305266666664,
        "epsilon_electronic_eig": [
            2.95823166,
            2.95823166,
            3.07912826
        ]
    },
    "phonon": {
        "lowest_freq": -0.062291469654079216,
        "frequency": [
            -0.062291469654079216,
            -0.062291469654079216,
            -0.017418580259406853,
            1.9637139619124693,
            2.3758080166380986,
            2.3758080166380986,
            2.787262119441603,
            3.072183420972315,
            3.230009419639215,
            3.230009419639215,
            3.491147212462917,
            3.8249308935818327,
            3.8249308935818327,
            4.372884052344081,
            4.413026085725859,
            4.532085910053954,
            4.5604253610416805,
            4.5604253610416805,
            5.331150294442622,
            5.609242983538212,
            5.609242983538212,
            5.8044177916022965,
            5.8044177916022965,
            5.849741589259152,
            5.909726330213809,
            6.482334639564756,
            6.482334639564756,
            7.063577803886888,
            7.24380366916118,
            7.550372542399978,
            8.204439315532431,
            8.574669624023674,
            8.627472176714958,
            9.320758621142675,
            9.320758621142675,
            9.952445370378262,
            9.952445370378262,
            10.386200996875054,
            10.8268087004582,
            10.8268087004582,
            12.113642100732072,
            12.735485817898796,
            12.93672622466786,
            12.93672622466786,
            13.167882769544029,
            13.286067095934028,
            13.458104475645566,
            13.71331610231144,
            14.011729816967879,
            14.011729816967879,
            15.685158500331633,
            15.685158500331633,
            16.441461436569078,
            16.587067726402292,
            16.587067726402292,
            16.81109603255193,
            18.391062120815747,
            18.90651038276756,
            24.114752399351133,
            24.114752399351133,
            25.925376299200238,
            25.954691557268923,
            26.34155472997382,
            26.531723269080562,
            26.531723269080562,
            28.04627184309946,
            28.04627184309946,
            28.10795283786367,
            28.43790581242576,
            28.584670504042435,
            28.876761956737155,
            28.876761956737155
        ]
    },
    "born_effective_charge": {
        "avg_abs_trace": 2.1520059722222222,
        "tensors": [
            [
                [
                    2.51778,
                    0.40333,
                    0.1282
                ],
                [
                    0.40333,
                    2.51778,
                    0.12819
                ],
                [
                    0.01964,
                    0.01964,
                    2.76194
                ]
            ],
            [
                [
                    2.51778,
                    -0.40333,
                    -0.1282
                ],
                [
                    -0.4034,
                    2.51778,
                    0.12821
                ],
                [
                    -0.01963,
                    0.01963,
                    2.76201
                ]
            ],
            [
                [
                    2.51778,
                    -0.4034,
                    0.1282
                ],
                [
                    -0.40333,
                    2.51778,
                    -0.12819
                ],
                [
                    0.01963,
                    -0.01963,
                    2.76201
                ]
            ],
            [
                [
                    2.51778,
                    0.4034,
                    -0.1282
                ],
                [
                    0.4034,
                    2.51778,
                    -0.12821
                ],
                [
                    -0.01964,
                    -0.01964,
                    2.76194
                ]
            ],
            [
                [
                    2.21144,
                    -0.00907,
                    0.0
                ],
                [
                    0.00907,
                    2.21144,
                    -0.0
                ],
                [
                    0.0,
                    0.0,
                    1.5752
                ]
            ],
            [
                [
                    2.21144,
                    0.00907,
                    -0.0
                ],
                [
                    -0.00907,
                    2.21144,
                    0.0
                ],
                [
                    0.0,
                    0.0,
                    1.5752
                ]
            ],
            [
                [
                    2.71,
                    0.13318,
                    -0.02538
                ],
                [
                    0.13318,
                    2.71,
                    -0.02538
                ],
                [
                    0.03532,
                    0.03532,
                    3.1514
                ]
            ],
            [
                [
                    2.71006,
                    0.13314,
                    0.02535
                ],
                [
                    0.13314,
                    2.71006,
                    0.02535
                ],
                [
                    -0.03532,
                    -0.03532,
                    3.1514
                ]
            ],
            [
                [
                    2.71,
                    -0.13318,
                    0.02538
                ],
                [
                    -0.13314,
                    2.71006,
                    -0.02535
                ],
                [
                    -0.03528,
                    0.03528,
                    3.15143
                ]
            ],
            [
                [
                    2.71006,
                    -0.13314,
                    -0.02535
                ],
                [
                    -0.13318,
                    2.71,
                    0.02538
                ],
                [
                    0.03528,
                    -0.03528,
                    3.15143
                ]
            ],
            [
                [
                    -1.70118,
                    0.06542,
                    -0.04715
                ],
                [
                    0.15878,
                    -1.99707,
                    -0.19902
                ],
                [
                    -0.02421,
                    -0.12756,
                    -1.71096
                ]
            ],
            [
                [
                    -1.70117,
                    0.06524,
                    0.04726
                ],
                [
                    0.15875,
                    -1.99707,
                    0.19906
                ],
                [
                    0.02421,
                    0.12756,
                    -1.71096
                ]
            ],
            [
                [
                    -1.99707,
                    -0.15875,
                    -0.19906
                ],
                [
                    -0.06541,
                    -1.70117,
                    0.04715
                ],
                [
                    -0.12756,
                    0.0242,
                    -1.71096
                ]
            ],
            [
                [
                    -1.99707,
                    -0.15877,
                    0.19901
                ],
                [
                    -0.06525,
                    -1.70117,
                    -0.04727
                ],
                [
                    0.12756,
                    -0.0242,
                    -1.71096
                ]
            ],
            [
                [
                    -1.99707,
                    0.15877,
                    -0.19901
                ],
                [
                    0.06541,
                    -1.70117,
                    -0.04715
                ],
                [
                    -0.12756,
                    -0.02421,
                    -1.71096
                ]
            ],
            [
                [
                    -1.70118,
                    -0.06542,
                    0.04715
                ],
                [
                    -0.15875,
                    -1.99707,
                    -0.19906
                ],
                [
                    0.0242,
                    -0.12756,
                    -1.71096
                ]
            ],
            [
                [
                    -1.70117,
                    -0.06524,
                    -0.04726
                ],
                [
                    -0.15878,
                    -1.99707,
                    0.19902
                ],
                [
                    -0.0242,
                    0.12756,
                    -1.71096
                ]
            ],
            [
                [
                    -1.99707,
                    0.15875,
                    0.19906
                ],
                [
                    0.06525,
                    -1.70117,
                    0.04727
                ],
                [
                    0.12756,
                    0.02421,
                    -1.71096
                ]
            ],
            [
                [
                    -1.58609,
                    -0.15899,
                    0.07284
                ],
                [
                    -0.15898,
                    -1.58609,
                    0.07284
                ],
                [
                    0.01723,
                    0.01723,
                    -2.43714
                ]
            ],
            [
                [
                    -1.58609,
                    0.15899,
                    -0.07284
                ],
                [
                    0.15889,
                    -1.5862,
                    0.07257
                ],
                [
                    -0.01725,
                    0.01725,
                    -2.43718
                ]
            ],
            [
                [
                    -2.09829,
                    0.81575,
                    -2e-05
                ],
                [
                    0.81575,
                    -2.09829,
                    -1e-05
                ],
                [
                    0.0,
                    0.0,
                    -1.68382
                ]
            ],
            [
                [
                    -2.09829,
                    -0.81575,
                    2e-05
                ],
                [
                    -0.81575,
                    -2.09829,
                    1e-05
                ],
                [
                    0.0,
                    0.0,
                    -1.68383
                ]
            ],
            [
                [
                    -1.5862,
                    -0.15888,
                    -0.07257
                ],
                [
                    -0.15889,
                    -1.5862,
                    -0.07257
                ],
                [
                    -0.01723,
                    -0.01723,
                    -2.43714
                ]
            ],
            [
                [
                    -1.5862,
                    0.15888,
                    0.07257
                ],
                [
                    0.15898,
                    -1.58609,
                    -0.07284
                ],
                [
                    0.01725,
                    -0.01725,
                    -2.43718
                ]
            ]
        ]
    },
    "band_gap": 4.5154,
    "is_direct": false,
    "formula": "Ba2MgSi2O7"
}