{
    "mp_id": "mp-9125",
    "nelements": 3,
    "nsites": 9,
    "elements": [
        "Ca",
        "O",
        "Sb"
    ],
    "structure": {
        "@module": "pymatgen.core.structure",
        "@class": "Structure",
        "charge": null,
        "lattice": {
            "matrix": [
                [
                    5.26825597,
                    0.0,
                    0.0
                ],
                [
                    -2.63412848,
                    4.56244364,
                    0.0
                ],
                [
                    0.0,
                    0.0,
                    5.01492033
                ]
            ],
            "a": 5.26825597,
            "b": 5.2682563355747565,
            "c": 5.01492033,
            "alpha": 90.0,
            "beta": 90.0,
            "gamma": 120.00000392080793,
            "volume": 120.5392315775003
        },
        "sites": [
            {
                "species": [
                    {
                        "element": "Ca",
                        "occu": 1
                    }
                ],
                "abc": [
                    0.0,
                    0.0,
                    0.0
                ],
                "xyz": [
                    0.0,
                    0.0,
                    0.0
                ],
                "label": "Ca",
                "properties": {}
            },
            {
                "species": [
                    {
                        "element": "Sb",
                        "occu": 1
                    }
                ],
                "abc": [
                    0.333333,
                    0.666667,
                    0.5
                ],
                "xyz": [
                    -2.9641281502623684e-06,
                    3.0416306141478797,
                    2.507460165
                ],
                "label": "Sb",
                "properties": {}
            },
            {
                "species": [
                    {
                        "element": "Sb",
                        "occu": 1
                    }
                ],
                "abc": [
                    0.666667,
                    0.333333,
                    0.5
                ],
                "xyz": [
                    2.63413045412815,
                    1.5208130258521197,
                    2.507460165
                ],
                "label": "Sb",
                "properties": {}
            },
            {
                "species": [
                    {
                        "element": "O",
                        "occu": 1
                    }
                ],
                "abc": [
                    0.36705506,
                    0.36705506,
                    0.71985847
                ],
                "xyz": [
                    0.9668698238895993,
                    1.6746680240268181,
                    3.610032875925695
                ],
                "label": "O",
                "properties": {}
            },
            {
                "species": [
                    {
                        "element": "O",
                        "occu": 1
                    }
                ],
                "abc": [
                    0.63294494,
                    0.0,
                    0.71985847
                ],
                "xyz": [
                    3.334515958836292,
                    0.0,
                    3.610032875925695
                ],
                "label": "O",
                "properties": {}
            },
            {
                "species": [
                    {
                        "element": "O",
                        "occu": 1
                    }
                ],
                "abc": [
                    0.0,
                    0.63294494,
                    0.71985847
                ],
                "xyz": [
                    -1.6672582927258914,
                    2.8877756159731813,
                    3.610032875925695
                ],
                "label": "O",
                "properties": {}
            },
            {
                "species": [
                    {
                        "element": "O",
                        "occu": 1
                    }
                ],
                "abc": [
                    0.36705506,
                    0.0,
                    0.28014153
                ],
                "xyz": [
                    1.9337400111637082,
                    0.0,
                    1.404887454074305
                ],
                "label": "O",
                "properties": {}
            },
            {
                "species": [
                    {
                        "element": "O",
                        "occu": 1
                    }
                ],
                "abc": [
                    0.0,
                    0.36705506,
                    0.28014153
                ],
                "xyz": [
                    -0.9668701872741089,
                    1.6746680240268181,
                    1.404887454074305
                ],
                "label": "O",
                "properties": {}
            },
            {
                "species": [
                    {
                        "element": "O",
                        "occu": 1
                    }
                ],
                "abc": [
                    0.63294494,
                    0.63294494,
                    0.28014153
                ],
                "xyz": [
                    1.6672576661104004,
                    2.8877756159731813,
                    1.404887454074305
                ],
                "label": "O",
                "properties": {}
            }
        ]
    },
    "spacegroup": {
        "source": "spglib",
        "symbol": "P-31m",
        "number": 162,
        "point_group": "-3m",
        "crystal_system": "trigonal",
        "hall": "-P 3 2"
    },
    "dielectric": {
        "epsilon_ionic": [
            [
                6.5504938,
                0.0,
                2.277e-05
            ],
            [
                0.0,
                6.55056891,
                -0.0
            ],
            [
                2.277e-05,
                -0.0,
                4.56980587
            ]
        ],
        "epsilon_ionic_avg": 5.890289526666667,
        "epsilon_ionic_eig": [
            6.550493800261764,
            4.569805869738236,
            6.55056891
        ],
        "epsilon_electronic": [
            [
                3.84279514,
                0.0,
                0.0
            ],
            [
                0.0,
                3.84279594,
                -0.0
            ],
            [
                -0.0,
                0.0,
                3.14093871
            ]
        ],
        "epsilon_electronic_avg": 3.6088432633333336,
        "epsilon_electronic_eig": [
            3.84279514,
            3.84279594,
            3.14093871
        ]
    },
    "phonon": {
        "lowest_freq": -0.01975983703182725,
        "frequency": [
            -0.01975983703182725,
            -0.019759834991019742,
            -0.008287849432680306,
            4.110923581708204,
            5.5756809688962665,
            5.612894436207366,
            5.612895024032709,
            6.737299832408505,
            6.737300031924742,
            8.419291344291487,
            8.865282153465515,
            8.865282553204832,
            9.42112451729172,
            9.421125308514007,
            9.642981413913397,
            15.31099720667722,
            15.310998028740359,
            15.545723405787484,
            15.545724239020284,
            16.39698617566115,
            16.396986324713012,
            17.070657754192382,
            17.413609348331267,
            19.285188501092136,
            19.30766322911892,
            19.3978924038425,
            19.397892466839068
        ]
    },
    "born_effective_charge": {
        "avg_abs_trace": 2.4954085185185186,
        "tensors": [
            [
                [
                    2.48991,
                    0.0,
                    1e-05
                ],
                [
                    0.0,
                    2.48993,
                    0.0
                ],
                [
                    0.0,
                    -0.0,
                    3.02555
                ]
            ],
            [
                [
                    4.95123,
                    -1e-05,
                    2e-05
                ],
                [
                    0.0,
                    4.9512,
                    0.0
                ],
                [
                    0.0,
                    -0.0,
                    2.93886
                ]
            ],
            [
                [
                    4.95123,
                    1e-05,
                    2e-05
                ],
                [
                    0.0,
                    4.95126,
                    0.0
                ],
                [
                    0.0,
                    -0.0,
                    2.93886
                ]
            ],
            [
                [
                    -2.25354,
                    0.32583,
                    0.18395
                ],
                [
                    0.32589,
                    -1.87726,
                    0.31857
                ],
                [
                    0.23494,
                    0.40693,
                    -1.48389
                ]
            ],
            [
                [
                    -1.6892,
                    0.0,
                    -0.36791
                ],
                [
                    -0.00013,
                    -2.44158,
                    1e-05
                ],
                [
                    -0.46988,
                    -0.0,
                    -1.48389
                ]
            ],
            [
                [
                    -2.25354,
                    -0.32583,
                    0.18395
                ],
                [
                    -0.32577,
                    -1.87735,
                    -0.31855
                ],
                [
                    0.23494,
                    -0.40693,
                    -1.48389
                ]
            ],
            [
                [
                    -1.68913,
                    0.0,
                    -0.36783
                ],
                [
                    0.00013,
                    -2.44158,
                    -1e-05
                ],
                [
                    -0.46993,
                    -0.0,
                    -1.48386
                ]
            ],
            [
                [
                    -2.25348,
                    -0.32583,
                    0.18389
                ],
                [
                    -0.32589,
                    -1.87726,
                    -0.31857
                ],
                [
                    0.23496,
                    -0.40697,
                    -1.48386
                ]
            ],
            [
                [
                    -2.25348,
                    0.32583,
                    0.18389
                ],
                [
                    0.32577,
                    -1.87735,
                    0.31855
                ],
                [
                    0.23496,
                    0.40697,
                    -1.48386
                ]
            ]
        ]
    },
    "band_gap": 2.8195,
    "is_direct": false,
    "formula": "Ca(SbO3)2"
}