{
    "mp_id": "mvc-2955",
    "nelements": 3,
    "nsites": 13,
    "elements": [
        "Ca",
        "O",
        "Ti"
    ],
    "structure": {
        "@module": "pymatgen.core.structure",
        "@class": "Structure",
        "charge": null,
        "lattice": {
            "matrix": [
                [
                    5.55676186,
                    -3.04907757,
                    0.00021549
                ],
                [
                    5.55676186,
                    3.04907757,
                    0.00021549
                ],
                [
                    -1.77878612,
                    0.0,
                    4.78570505
                ]
            ],
            "a": 6.338333885420025,
            "b": 6.338333885420025,
            "c": 5.105590356295749,
            "alpha": 107.78265744532328,
            "beta": 107.78265744532328,
            "gamma": 57.50845809686819,
            "volume": 162.17071918247885
        },
        "sites": [
            {
                "species": [
                    {
                        "element": "Ca",
                        "occu": 1
                    }
                ],
                "abc": [
                    0.27534925,
                    0.27534925,
                    0.34012412
                ],
                "xyz": [
                    2.4550923574259955,
                    0.0,
                    1.627852388730571
                ],
                "label": "Ca",
                "properties": {}
            },
            {
                "species": [
                    {
                        "element": "Ca",
                        "occu": 1
                    }
                ],
                "abc": [
                    0.72465075,
                    0.72465075,
                    0.65987588
                ],
                "xyz": [
                    6.879645242574005,
                    0.0,
                    3.1582836412694286
                ],
                "label": "Ca",
                "properties": {}
            },
            {
                "species": [
                    {
                        "element": "Ti",
                        "occu": 1
                    }
                ],
                "abc": [
                    0.0,
                    0.0,
                    0.5
                ],
                "xyz": [
                    -0.88939306,
                    0.0,
                    2.392852525
                ],
                "label": "Ti",
                "properties": {}
            },
            {
                "species": [
                    {
                        "element": "Ti",
                        "occu": 1
                    }
                ],
                "abc": [
                    0.73675158,
                    0.26324842,
                    0.0
                ],
                "xyz": [
                    5.556761859999999,
                    -1.4437478644801212,
                    0.00021549
                ],
                "label": "Ti",
                "properties": {}
            },
            {
                "species": [
                    {
                        "element": "Ti",
                        "occu": 1
                    }
                ],
                "abc": [
                    0.26324842,
                    0.73675158,
                    0.0
                ],
                "xyz": [
                    5.556761859999999,
                    1.4437478644801212,
                    0.00021549
                ],
                "label": "Ti",
                "properties": {}
            },
            {
                "species": [
                    {
                        "element": "O",
                        "occu": 1
                    }
                ],
                "abc": [
                    0.60556739,
                    0.60556739,
                    0.9486971
                ],
                "xyz": [
                    5.042458319259239,
                    0.0,
                    4.540445489824096
                ],
                "label": "O",
                "properties": {}
            },
            {
                "species": [
                    {
                        "element": "O",
                        "occu": 1
                    }
                ],
                "abc": [
                    0.39443261,
                    0.39443261,
                    0.0513029
                ],
                "xyz": [
                    4.292279280740761,
                    0.0,
                    0.24569054017590278
                ],
                "label": "O",
                "properties": {}
            },
            {
                "species": [
                    {
                        "element": "O",
                        "occu": 1
                    }
                ],
                "abc": [
                    0.10031899,
                    0.10031899,
                    0.90847782
                ],
                "xyz": [
                    -0.5010902616124158,
                    0.0,
                    4.347750126465301
                ],
                "label": "O",
                "properties": {}
            },
            {
                "species": [
                    {
                        "element": "O",
                        "occu": 1
                    }
                ],
                "abc": [
                    0.89968101,
                    0.89968101,
                    0.09152218
                ],
                "xyz": [
                    9.835827861612415,
                    0.0,
                    0.4383859035346988
                ],
                "label": "O",
                "properties": {}
            },
            {
                "species": [
                    {
                        "element": "O",
                        "occu": 1
                    }
                ],
                "abc": [
                    0.11492827,
                    0.6726905,
                    0.6040175
                ],
                "xyz": [
                    3.3021919961190127,
                    1.7006603048861813,
                    2.890819324007122
                ],
                "label": "O",
                "properties": {}
            },
            {
                "species": [
                    {
                        "element": "O",
                        "occu": 1
                    }
                ],
                "abc": [
                    0.6726905,
                    0.11492827,
                    0.6040175
                ],
                "xyz": [
                    3.3021919961190127,
                    -1.7006603048861813,
                    2.890819324007122
                ],
                "label": "O",
                "properties": {}
            },
            {
                "species": [
                    {
                        "element": "O",
                        "occu": 1
                    }
                ],
                "abc": [
                    0.3273095,
                    0.88507173,
                    0.3959825
                ],
                "xyz": [
                    6.032545603880988,
                    1.7006603048861808,
                    1.8953167059928777
                ],
                "label": "O",
                "properties": {}
            },
            {
                "species": [
                    {
                        "element": "O",
                        "occu": 1
                    }
                ],
                "abc": [
                    0.88507173,
                    0.3273095,
                    0.3959825
                ],
                "xyz": [
                    6.032545603880988,
                    -1.7006603048861808,
                    1.8953167059928777
                ],
                "label": "O",
                "properties": {}
            }
        ]
    },
    "spacegroup": {
        "source": "spglib",
        "symbol": "C2/m",
        "number": 12,
        "point_group": "2/m",
        "crystal_system": "monoclinic",
        "hall": "-C 2y"
    },
    "dielectric": {
        "epsilon_ionic": [
            [
                8.5449977,
                -0.0,
                -4.02584915
            ],
            [
                -0.0,
                20.14225697,
                -0.0
            ],
            [
                -4.02584915,
                -0.0,
                16.6954413
            ]
        ],
        "epsilon_ionic_avg": 15.127565323333334,
        "epsilon_ionic_eig": [
            6.891790911132809,
            18.34864808886719,
            20.14225697
        ],
        "epsilon_electronic": [
            [
                3.95401888,
                0.0,
                -0.37283527
            ],
            [
                0.0,
                5.34899193,
                0.0
            ],
            [
                -0.37286061,
                0.0,
                5.07730078
            ]
        ],
        "epsilon_electronic_avg": 4.793437196666667,
        "epsilon_electronic_eig": [
            3.8415262060658297,
            5.18979345393417,
            5.34899193
        ]
    },
    "phonon": {
        "lowest_freq": -0.056477162671351264,
        "frequency": [
            -0.056477162671351264,
            -0.043630402201724476,
            -0.03575397855863837,
            4.861882736137906,
            5.542108773111738,
            5.59820234591734,
            6.272402577277627,
            6.475854547111688,
            6.487063087767682,
            6.504031211765049,
            7.255348171698067,
            7.468071432944713,
            7.819329354332171,
            7.905192644683144,
            8.722132883001242,
            9.661677221495113,
            9.707486395678567,
            10.091068683864334,
            10.216996135618706,
            10.565880967959732,
            11.506034239949187,
            11.531533137894883,
            12.868507487341923,
            12.910468598956971,
            12.951924098433539,
            13.197630622479615,
            13.254247294038887,
            13.418361207025319,
            14.466492004167842,
            15.753614353088242,
            15.810600759777403,
            16.5935336058244,
            17.045074556347256,
            17.568061874028444,
            18.190179581524742,
            18.62405982071017,
            18.86719668565375,
            19.6099732155773,
            20.306995383294545
        ]
    },
    "born_effective_charge": {
        "avg_abs_trace": 3.0593253846153847,
        "tensors": [
            [
                [
                    3.26902,
                    -0.0,
                    0.35819
                ],
                [
                    8e-05,
                    2.20728,
                    -2e-05
                ],
                [
                    0.53928,
                    -0.0,
                    2.40655
                ]
            ],
            [
                [
                    3.26906,
                    -0.0,
                    0.3583
                ],
                [
                    -8e-05,
                    2.20728,
                    2e-05
                ],
                [
                    0.53924,
                    -0.0,
                    2.40646
                ]
            ],
            [
                [
                    4.1251,
                    -0.0,
                    -1.94756
                ],
                [
                    -0.0,
                    4.82942,
                    0.0
                ],
                [
                    -2.91206,
                    -0.0,
                    6.35071
                ]
            ],
            [
                [
                    2.40813,
                    8e-05,
                    -0.42237
                ],
                [
                    -0.0,
                    6.73259,
                    0.0
                ],
                [
                    -0.09259,
                    5e-05,
                    5.15222
                ]
            ],
            [
                [
                    2.40813,
                    -8e-05,
                    -0.42237
                ],
                [
                    -0.0,
                    6.73268,
                    0.0
                ],
                [
                    -0.09259,
                    -5e-05,
                    5.15222
                ]
            ],
            [
                [
                    -2.06815,
                    -0.0,
                    0.51965
                ],
                [
                    -4e-05,
                    -3.92816,
                    0.00011
                ],
                [
                    0.43421,
                    -0.0,
                    -1.26231
                ]
            ],
            [
                [
                    -2.06735,
                    -0.0,
                    0.51954
                ],
                [
                    4e-05,
                    -3.92816,
                    -0.00011
                ],
                [
                    0.43457,
                    -0.0,
                    -1.26233
                ]
            ],
            [
                [
                    -1.62124,
                    -0.0,
                    0.22264
                ],
                [
                    -5e-05,
                    -2.83516,
                    -4e-05
                ],
                [
                    0.28122,
                    -0.0,
                    -3.15366
                ]
            ],
            [
                [
                    -1.62165,
                    -0.0,
                    0.22222
                ],
                [
                    5e-05,
                    -2.83516,
                    4e-05
                ],
                [
                    0.28154,
                    -0.0,
                    -3.15355
                ]
            ],
            [
                [
                    -2.02531,
                    -0.63799,
                    0.14792
                ],
                [
                    -0.70212,
                    -2.29562,
                    0.61212
                ],
                [
                    0.14666,
                    0.49796,
                    -3.15905
                ]
            ],
            [
                [
                    -2.02531,
                    0.63799,
                    0.14792
                ],
                [
                    0.70205,
                    -2.29568,
                    -0.6122
                ],
                [
                    0.14666,
                    -0.49796,
                    -3.15905
                ]
            ],
            [
                [
                    -2.02521,
                    0.638,
                    0.14797
                ],
                [
                    0.70212,
                    -2.29562,
                    -0.61212
                ],
                [
                    0.14693,
                    -0.49829,
                    -3.15911
                ]
            ],
            [
                [
                    -2.02521,
                    -0.638,
                    0.14797
                ],
                [
                    -0.70205,
                    -2.29568,
                    0.6122
                ],
                [
                    0.14693,
                    0.49829,
                    -3.15911
                ]
            ]
        ]
    },
    "band_gap": 2.9055,
    "is_direct": false,
    "formula": "Ca2Ti3O8"
}