{
    "mp_id": "mvc-5559",
    "nelements": 3,
    "nsites": 14,
    "elements": [
        "Ag",
        "Ca",
        "O"
    ],
    "structure": {
        "@module": "pymatgen.core.structure",
        "@class": "Structure",
        "charge": null,
        "lattice": {
            "matrix": [
                [
                    -2.936386,
                    2.936386,
                    4.964279
                ],
                [
                    2.936386,
                    -2.936386,
                    4.964279
                ],
                [
                    2.936386,
                    2.936386,
                    -4.964279
                ]
            ],
            "a": 6.472155087127703,
            "b": 6.472155087127703,
            "c": 6.472155087127703,
            "alpha": 126.03796900604948,
            "beta": 126.03796900604948,
            "gamma": 79.82574482643267,
            "volume": 171.21525714203554
        },
        "sites": [
            {
                "species": [
                    {
                        "element": "Ca",
                        "occu": 1
                    }
                ],
                "abc": [
                    0.75,
                    0.25,
                    0.5
                ],
                "xyz": [
                    2.220446049250313e-16,
                    2.9363859999999997,
                    2.4821395
                ],
                "label": "Ca",
                "properties": {}
            },
            {
                "species": [
                    {
                        "element": "Ca",
                        "occu": 1
                    }
                ],
                "abc": [
                    0.0,
                    0.0,
                    0.0
                ],
                "xyz": [
                    0.0,
                    0.0,
                    0.0
                ],
                "label": "Ca",
                "properties": {}
            },
            {
                "species": [
                    {
                        "element": "Ag",
                        "occu": 1
                    }
                ],
                "abc": [
                    0.375,
                    0.625,
                    0.75
                ],
                "xyz": [
                    2.936386,
                    1.4681929999999999,
                    1.2410697500000003
                ],
                "label": "Ag",
                "properties": {}
            },
            {
                "species": [
                    {
                        "element": "Ag",
                        "occu": 1
                    }
                ],
                "abc": [
                    0.875,
                    0.625,
                    0.25
                ],
                "xyz": [
                    -1.1102230246251565e-16,
                    1.4681930000000003,
                    6.205348750000001
                ],
                "label": "Ag",
                "properties": {}
            },
            {
                "species": [
                    {
                        "element": "Ag",
                        "occu": 1
                    }
                ],
                "abc": [
                    0.375,
                    0.625,
                    0.25
                ],
                "xyz": [
                    1.4681930000000003,
                    -1.1102230246251565e-16,
                    3.72320925
                ],
                "label": "Ag",
                "properties": {}
            },
            {
                "species": [
                    {
                        "element": "Ag",
                        "occu": 1
                    }
                ],
                "abc": [
                    0.375,
                    0.125,
                    0.75
                ],
                "xyz": [
                    1.468193,
                    2.9363859999999997,
                    -1.2410697499999999
                ],
                "label": "Ag",
                "properties": {}
            },
            {
                "species": [
                    {
                        "element": "O",
                        "occu": 1
                    }
                ],
                "abc": [
                    0.596716,
                    0.655211,
                    0.647514
                ],
                "xyz": [
                    2.073114943474,
                    1.7295871453340004,
                    3.0004747632270004
                ],
                "label": "O",
                "properties": {}
            },
            {
                "species": [
                    {
                        "element": "O",
                        "occu": 1
                    }
                ],
                "abc": [
                    0.344789,
                    0.992303,
                    0.941506
                ],
                "xyz": [
                    4.66597608172,
                    0.8632739929119999,
                    1.9637992724940005
                ],
                "label": "O",
                "properties": {}
            },
            {
                "species": [
                    {
                        "element": "O",
                        "occu": 1
                    }
                ],
                "abc": [
                    0.050798,
                    0.403284,
                    0.058494
                ],
                "xyz": [
                    1.2067959182799999,
                    -0.8632739929119999,
                    1.9638092010519999
                ],
                "label": "O",
                "properties": {}
            },
            {
                "species": [
                    {
                        "element": "O",
                        "occu": 1
                    }
                ],
                "abc": [
                    0.742303,
                    0.300798,
                    0.147514
                ],
                "xyz": [
                    -0.8632710565260002,
                    1.7295871453340002,
                    4.4459437367730015
                ],
                "label": "O",
                "properties": {}
            },
            {
                "species": [
                    {
                        "element": "O",
                        "occu": 1
                    }
                ],
                "abc": [
                    0.699202,
                    0.846716,
                    0.441506
                ],
                "xyz": [
                    1.7295900817200003,
                    0.8632739929119999,
                    5.482609298948001
                ],
                "label": "O",
                "properties": {}
            },
            {
                "species": [
                    {
                        "element": "O",
                        "occu": 1
                    }
                ],
                "abc": [
                    0.405211,
                    0.257697,
                    0.558494
                ],
                "xyz": [
                    1.2067959182800003,
                    2.0731120070880005,
                    0.5183402275059996
                ],
                "label": "O",
                "properties": {}
            },
            {
                "species": [
                    {
                        "element": "O",
                        "occu": 1
                    }
                ],
                "abc": [
                    0.007697,
                    0.949202,
                    0.352486
                ],
                "xyz": [
                    3.799657056526,
                    -1.729587145334,
                    3.000474763227
                ],
                "label": "O",
                "properties": {}
            },
            {
                "species": [
                    {
                        "element": "O",
                        "occu": 1
                    }
                ],
                "abc": [
                    0.153284,
                    0.594789,
                    0.852486
                ],
                "xyz": [
                    3.799657056526,
                    1.2067988546659998,
                    -0.5183352632270002
                ],
                "label": "O",
                "properties": {}
            }
        ]
    },
    "spacegroup": {
        "source": "spglib",
        "symbol": "I4_1/a",
        "number": 88,
        "point_group": "4/m",
        "crystal_system": "tetragonal",
        "hall": "I 4bw -1bw"
    },
    "dielectric": {
        "epsilon_ionic": [
            [
                4.21246074,
                -0.00012618,
                -1e-08
            ],
            [
                -0.00012618,
                4.21214048,
                -0.0
            ],
            [
                -1e-08,
                -0.0,
                4.27353206
            ]
        ],
        "epsilon_ionic_avg": 4.232711093333333,
        "epsilon_ionic_eig": [
            4.212504480079463,
            4.212096739920537,
            4.273532060000002
        ],
        "epsilon_electronic": [
            [
                6.70319214,
                -1.97e-06,
                0.0
            ],
            [
                1.97e-06,
                6.70319214,
                0.0
            ],
            [
                0.0,
                -0.0,
                9.70744544
            ]
        ],
        "epsilon_electronic_avg": 7.704609906666666,
        "epsilon_electronic_eig": [
            6.70319214,
            6.70319214,
            9.70744544
        ]
    },
    "phonon": {
        "lowest_freq": -0.029885753937704634,
        "frequency": [
            -0.029885753937704634,
            -0.02645960328296666,
            -0.02645960328296666,
            3.8647562566500913,
            4.235518439507847,
            4.235518439507847,
            4.273326676265651,
            4.615871712605211,
            4.7715713053875595,
            5.149673773040931,
            5.149673773040931,
            5.510636106870509,
            6.062532997962328,
            6.062532997962328,
            6.150530118265962,
            6.5516367608888375,
            6.8067747345838185,
            6.8067747345838185,
            8.007784435799424,
            8.007784435799424,
            8.287683983170725,
            8.348849940231347,
            9.639821340995493,
            9.639821340995493,
            10.591123613530215,
            10.897936004383675,
            12.967236064782549,
            12.967236064782549,
            13.260340791398146,
            13.966420461579677,
            15.302623288881724,
            15.589580449875205,
            15.589580449875205,
            15.76420872944103,
            16.294216973951603,
            16.294216973951603,
            16.454104495895052,
            17.189810890174005,
            17.69120453424544,
            17.69120453424544,
            17.762638705620006,
            18.130132762099585
        ]
    },
    "born_effective_charge": {
        "avg_abs_trace": 1.8951123809523807,
        "tensors": [
            [
                [
                    2.66712,
                    0.09143,
                    0.00038
                ],
                [
                    -0.09147,
                    2.6671,
                    0.00023
                ],
                [
                    0.0,
                    0.0,
                    2.52253
                ]
            ],
            [
                [
                    2.66712,
                    0.09143,
                    -0.00038
                ],
                [
                    -0.09147,
                    2.6671,
                    -0.00023
                ],
                [
                    0.0,
                    0.0,
                    2.52253
                ]
            ],
            [
                [
                    2.6835,
                    -0.67875,
                    -0.36754
                ],
                [
                    -0.68728,
                    0.86162,
                    -0.56035
                ],
                [
                    0.78805,
                    -0.14141,
                    2.47596
                ]
            ],
            [
                [
                    2.6835,
                    -0.67875,
                    0.36754
                ],
                [
                    -0.68728,
                    0.86162,
                    0.56035
                ],
                [
                    -0.78805,
                    0.14141,
                    2.47596
                ]
            ],
            [
                [
                    0.86181,
                    0.6871,
                    -0.56049
                ],
                [
                    0.67862,
                    2.68307,
                    0.36746
                ],
                [
                    -0.14141,
                    -0.78805,
                    2.47596
                ]
            ],
            [
                [
                    0.86181,
                    0.6871,
                    0.56049
                ],
                [
                    0.67862,
                    2.68307,
                    -0.36746
                ],
                [
                    0.14141,
                    0.78805,
                    2.47596
                ]
            ],
            [
                [
                    -1.36598,
                    -0.30395,
                    0.58741
                ],
                [
                    -0.25413,
                    -1.74026,
                    0.5583
                ],
                [
                    0.39103,
                    0.5048,
                    -1.86865
                ]
            ],
            [
                [
                    -1.74034,
                    0.25433,
                    -0.55776
                ],
                [
                    0.30417,
                    -1.36563,
                    0.58719
                ],
                [
                    -0.50486,
                    0.39094,
                    -1.86858
                ]
            ],
            [
                [
                    -1.74029,
                    0.25383,
                    0.55806
                ],
                [
                    0.30415,
                    -1.36584,
                    -0.58692
                ],
                [
                    0.50486,
                    -0.39094,
                    -1.86858
                ]
            ],
            [
                [
                    -1.36598,
                    -0.30395,
                    -0.58741
                ],
                [
                    -0.25413,
                    -1.74026,
                    -0.5583
                ],
                [
                    -0.39094,
                    -0.50486,
                    -1.86858
                ]
            ],
            [
                [
                    -1.74034,
                    0.25433,
                    0.55776
                ],
                [
                    0.30417,
                    -1.36563,
                    -0.58719
                ],
                [
                    0.5048,
                    -0.39103,
                    -1.86865
                ]
            ],
            [
                [
                    -1.74029,
                    0.25383,
                    -0.55806
                ],
                [
                    0.30415,
                    -1.36584,
                    0.58692
                ],
                [
                    -0.5048,
                    0.39103,
                    -1.86865
                ]
            ],
            [
                [
                    -1.36583,
                    -0.30399,
                    -0.58679
                ],
                [
                    -0.25406,
                    -1.74006,
                    -0.55739
                ],
                [
                    -0.39103,
                    -0.5048,
                    -1.86865
                ]
            ],
            [
                [
                    -1.36583,
                    -0.30399,
                    0.58679
                ],
                [
                    -0.25406,
                    -1.74006,
                    0.55739
                ],
                [
                    0.39094,
                    0.50486,
                    -1.86858
                ]
            ]
        ]
    },
    "band_gap": 1.1724999999999999,
    "is_direct": false,
    "formula": "Ca(AgO2)2"
}