{
    "mp_id": "mvc-4415",
    "nelements": 2,
    "nsites": 7,
    "elements": [
        "O",
        "Ta"
    ],
    "structure": {
        "@module": "pymatgen.core.structure",
        "@class": "Structure",
        "charge": null,
        "lattice": {
            "matrix": [
                [
                    1.95570369,
                    -6.48573643,
                    0.0
                ],
                [
                    1.95570369,
                    6.48573643,
                    0.0
                ],
                [
                    0.0,
                    0.0,
                    3.86828088
                ]
            ],
            "a": 6.774182899989397,
            "b": 6.774182899989397,
            "c": 3.86828088,
            "alpha": 90.0,
            "beta": 90.0,
            "gamma": 146.4397656327765,
            "volume": 98.13193164386738
        },
        "sites": [
            {
                "species": [
                    {
                        "element": "Ta",
                        "occu": 1
                    }
                ],
                "abc": [
                    0.85226507,
                    0.14773493,
                    0.0
                ],
                "xyz": [
                    1.95570369,
                    -4.569396795031,
                    0.0
                ],
                "label": "Ta",
                "properties": {}
            },
            {
                "species": [
                    {
                        "element": "Ta",
                        "occu": 1
                    }
                ],
                "abc": [
                    0.14773493,
                    0.85226507,
                    0.0
                ],
                "xyz": [
                    1.95570369,
                    4.569396795031,
                    0.0
                ],
                "label": "Ta",
                "properties": {}
            },
            {
                "species": [
                    {
                        "element": "O",
                        "occu": 1
                    }
                ],
                "abc": [
                    0.31499043,
                    0.68500957,
                    0.0
                ],
                "xyz": [
                    1.95570369,
                    2.39984661609527,
                    0.0
                ],
                "label": "O",
                "properties": {}
            },
            {
                "species": [
                    {
                        "element": "O",
                        "occu": 1
                    }
                ],
                "abc": [
                    0.68500957,
                    0.31499043,
                    0.0
                ],
                "xyz": [
                    1.95570369,
                    -2.39984661609527,
                    0.0
                ],
                "label": "O",
                "properties": {}
            },
            {
                "species": [
                    {
                        "element": "O",
                        "occu": 1
                    }
                ],
                "abc": [
                    0.15053273,
                    0.84946727,
                    0.5
                ],
                "xyz": [
                    1.95570369,
                    4.533105208263293,
                    1.93414044
                ],
                "label": "O",
                "properties": {}
            },
            {
                "species": [
                    {
                        "element": "O",
                        "occu": 1
                    }
                ],
                "abc": [
                    0.84946727,
                    0.15053273,
                    0.5
                ],
                "xyz": [
                    1.95570369,
                    -4.533105208263293,
                    1.93414044
                ],
                "label": "O",
                "properties": {}
            },
            {
                "species": [
                    {
                        "element": "O",
                        "occu": 1
                    }
                ],
                "abc": [
                    0.0,
                    0.0,
                    0.0
                ],
                "xyz": [
                    0.0,
                    0.0,
                    0.0
                ],
                "label": "O",
                "properties": {}
            }
        ]
    },
    "spacegroup": {
        "source": "spglib",
        "symbol": "Cmmm",
        "number": 65,
        "point_group": "mmm",
        "crystal_system": "orthorhombic",
        "hall": "-C 2 2"
    },
    "dielectric": {
        "epsilon_ionic": [
            [
                20.17971339,
                1e-08,
                1.5e-07
            ],
            [
                1e-08,
                17.98968656,
                3e-08
            ],
            [
                1.5e-07,
                3e-08,
                56.8582894
            ]
        ],
        "epsilon_ionic_avg": 31.675896450000007,
        "epsilon_ionic_eig": [
            20.179713390000003,
            56.858289400000004,
            17.989686560000006
        ],
        "epsilon_electronic": [
            [
                4.3639794,
                0.0,
                0.0
            ],
            [
                -0.0,
                4.54904428,
                0.0
            ],
            [
                0.0,
                0.0,
                6.04013919
            ]
        ],
        "epsilon_electronic_avg": 4.984387623333333,
        "epsilon_electronic_eig": [
            4.3639794,
            4.54904428,
            6.04013919
        ]
    },
    "phonon": {
        "lowest_freq": -0.01983688376446515,
        "frequency": [
            -0.01983688376446515,
            -0.01608167298578965,
            -0.013119063839435157,
            1.6300201378605808,
            3.4238770492214647,
            3.9053303029430606,
            5.866397731593506,
            6.2841434530980385,
            6.480902654084461,
            6.787468746465,
            6.86844599891996,
            8.322444064634976,
            9.112691187742806,
            9.421387666378102,
            11.441387145689875,
            14.512888397381877,
            15.99396216329823,
            16.324331976115793,
            17.225352458794244,
            20.33431127129998,
            24.571486395810602
        ]
    },
    "born_effective_charge": {
        "avg_abs_trace": 4.400898571428572,
        "tensors": [
            [
                [
                    6.56093,
                    -0.00043,
                    0.0
                ],
                [
                    0.0,
                    6.98674,
                    0.0
                ],
                [
                    0.0,
                    0.00058,
                    9.55723
                ]
            ],
            [
                [
                    6.56093,
                    0.00043,
                    0.0
                ],
                [
                    -0.0,
                    6.98636,
                    0.0
                ],
                [
                    -0.0,
                    -0.00058,
                    9.55723
                ]
            ],
            [
                [
                    -4.94731,
                    0.00086,
                    0.0
                ],
                [
                    -0.0,
                    -2.50777,
                    0.0
                ],
                [
                    0.0,
                    -2e-05,
                    -1.39
                ]
            ],
            [
                [
                    -4.94731,
                    -0.00086,
                    0.0
                ],
                [
                    -0.0,
                    -2.50772,
                    0.0
                ],
                [
                    0.0,
                    2e-05,
                    -1.39
                ]
            ],
            [
                [
                    -1.22535,
                    0.00019,
                    0.0
                ],
                [
                    -0.0,
                    -1.23155,
                    0.0
                ],
                [
                    0.0,
                    0.00056,
                    -7.50066
                ]
            ],
            [
                [
                    -1.22535,
                    -0.00019,
                    0.0
                ],
                [
                    -0.0,
                    -1.23169,
                    0.0
                ],
                [
                    -0.0,
                    -0.00056,
                    -7.50066
                ]
            ],
            [
                [
                    -0.77656,
                    0.0,
                    0.0
                ],
                [
                    -0.0,
                    -6.49437,
                    0.0
                ],
                [
                    0.0,
                    0.0,
                    -1.33315
                ]
            ]
        ]
    },
    "band_gap": 2.4623,
    "is_direct": false,
    "formula": "Ta2O5"
}