{
    "mp_id": "mvc-6622",
    "nelements": 3,
    "nsites": 28,
    "elements": [
        "Cu",
        "Mg",
        "O"
    ],
    "structure": {
        "@module": "pymatgen.core.structure",
        "@class": "Structure",
        "charge": null,
        "lattice": {
            "matrix": [
                [
                    3.05050359,
                    0.0,
                    0.0
                ],
                [
                    0.0,
                    9.76521272,
                    0.0
                ],
                [
                    0.0,
                    0.0,
                    8.99190882
                ]
            ],
            "a": 3.05050359,
            "b": 9.76521272,
            "c": 8.99190882,
            "alpha": 90.0,
            "beta": 90.0,
            "gamma": 90.0,
            "volume": 267.85832145930243
        },
        "sites": [
            {
                "species": [
                    {
                        "element": "Mg",
                        "occu": 1
                    }
                ],
                "abc": [
                    0.8729726,
                    0.84748603,
                    0.25
                ],
                "xyz": [
                    2.6630060502716337,
                    8.275881360178301,
                    2.247977205
                ],
                "label": "Mg",
                "properties": {}
            },
            {
                "species": [
                    {
                        "element": "Mg",
                        "occu": 1
                    }
                ],
                "abc": [
                    0.8729726,
                    0.65251397,
                    0.75
                ],
                "xyz": [
                    2.6630060502716337,
                    6.371937719821698,
                    6.743931615000001
                ],
                "label": "Mg",
                "properties": {}
            },
            {
                "species": [
                    {
                        "element": "Mg",
                        "occu": 1
                    }
                ],
                "abc": [
                    0.1270274,
                    0.34748603,
                    0.25
                ],
                "xyz": [
                    0.38749753972836604,
                    3.3932750001783014,
                    2.247977205
                ],
                "label": "Mg",
                "properties": {}
            },
            {
                "species": [
                    {
                        "element": "Mg",
                        "occu": 1
                    }
                ],
                "abc": [
                    0.1270274,
                    0.15251397,
                    0.75
                ],
                "xyz": [
                    0.38749753972836604,
                    1.4893313598216982,
                    6.743931615000001
                ],
                "label": "Mg",
                "properties": {}
            },
            {
                "species": [
                    {
                        "element": "Cu",
                        "occu": 1
                    }
                ],
                "abc": [
                    0.34635381,
                    0.61458211,
                    0.06949613
                ],
                "xyz": [
                    1.0565535408151778,
                    6.001525038056438,
                    0.6249028643028667
                ],
                "label": "Cu",
                "properties": {}
            },
            {
                "species": [
                    {
                        "element": "Cu",
                        "occu": 1
                    }
                ],
                "abc": [
                    0.34635381,
                    0.88541789,
                    0.56949613
                ],
                "xyz": [
                    1.0565535408151778,
                    8.64629404194356,
                    5.120857274302867
                ],
                "label": "Cu",
                "properties": {}
            },
            {
                "species": [
                    {
                        "element": "Cu",
                        "occu": 1
                    }
                ],
                "abc": [
                    0.65364619,
                    0.38541789,
                    0.56949613
                ],
                "xyz": [
                    1.993950049184822,
                    3.7636876819435603,
                    5.120857274302867
                ],
                "label": "Cu",
                "properties": {}
            },
            {
                "species": [
                    {
                        "element": "Cu",
                        "occu": 1
                    }
                ],
                "abc": [
                    0.34635381,
                    0.88541789,
                    0.93050387
                ],
                "xyz": [
                    1.0565535408151778,
                    8.64629404194356,
                    8.367005955697135
                ],
                "label": "Cu",
                "properties": {}
            },
            {
                "species": [
                    {
                        "element": "Cu",
                        "occu": 1
                    }
                ],
                "abc": [
                    0.65364619,
                    0.38541789,
                    0.93050387
                ],
                "xyz": [
                    1.993950049184822,
                    3.7636876819435603,
                    8.367005955697135
                ],
                "label": "Cu",
                "properties": {}
            },
            {
                "species": [
                    {
                        "element": "Cu",
                        "occu": 1
                    }
                ],
                "abc": [
                    0.34635381,
                    0.61458211,
                    0.43050387
                ],
                "xyz": [
                    1.0565535408151778,
                    6.001525038056438,
                    3.8710515456971337
                ],
                "label": "Cu",
                "properties": {}
            },
            {
                "species": [
                    {
                        "element": "Cu",
                        "occu": 1
                    }
                ],
                "abc": [
                    0.65364619,
                    0.11458211,
                    0.43050387
                ],
                "xyz": [
                    1.993950049184822,
                    1.118918678056439,
                    3.8710515456971337
                ],
                "label": "Cu",
                "properties": {}
            },
            {
                "species": [
                    {
                        "element": "Cu",
                        "occu": 1
                    }
                ],
                "abc": [
                    0.65364619,
                    0.11458211,
                    0.06949613
                ],
                "xyz": [
                    1.993950049184822,
                    1.118918678056439,
                    0.6249028643028667
                ],
                "label": "Cu",
                "properties": {}
            },
            {
                "species": [
                    {
                        "element": "O",
                        "occu": 1
                    }
                ],
                "abc": [
                    0.63385127,
                    0.45639095,
                    0.38294611
                ],
                "xyz": [
                    1.9335655746610592,
                    4.456754710232884,
                    3.4434165040936904
                ],
                "label": "O",
                "properties": {}
            },
            {
                "species": [
                    {
                        "element": "O",
                        "occu": 1
                    }
                ],
                "abc": [
                    0.36614873,
                    0.54360905,
                    0.61705389
                ],
                "xyz": [
                    1.1169380153389405,
                    5.308458009767116,
                    5.54849231590631
                ],
                "label": "O",
                "properties": {}
            },
            {
                "species": [
                    {
                        "element": "O",
                        "occu": 1
                    }
                ],
                "abc": [
                    0.99507365,
                    0.75,
                    0.5
                ],
                "xyz": [
                    3.0354757416394036,
                    7.323909539999999,
                    4.49595441
                ],
                "label": "O",
                "properties": {}
            },
            {
                "species": [
                    {
                        "element": "O",
                        "occu": 1
                    }
                ],
                "abc": [
                    0.36614873,
                    0.95639095,
                    0.38294611
                ],
                "xyz": [
                    1.1169380153389405,
                    9.339361070232883,
                    3.4434165040936904
                ],
                "label": "O",
                "properties": {}
            },
            {
                "species": [
                    {
                        "element": "O",
                        "occu": 1
                    }
                ],
                "abc": [
                    0.36614873,
                    0.95639095,
                    0.11705389
                ],
                "xyz": [
                    1.1169380153389405,
                    9.339361070232883,
                    1.0525379059063098
                ],
                "label": "O",
                "properties": {}
            },
            {
                "species": [
                    {
                        "element": "O",
                        "occu": 1
                    }
                ],
                "abc": [
                    0.36872419,
                    0.79944791,
                    0.75
                ],
                "xyz": [
                    1.124794465314842,
                    7.806778899709415,
                    6.743931615000001
                ],
                "label": "O",
                "properties": {}
            },
            {
                "species": [
                    {
                        "element": "O",
                        "occu": 1
                    }
                ],
                "abc": [
                    0.63385127,
                    0.04360905,
                    0.61705389
                ],
                "xyz": [
                    1.9335655746610592,
                    0.425851649767116,
                    5.54849231590631
                ],
                "label": "O",
                "properties": {}
            },
            {
                "species": [
                    {
                        "element": "O",
                        "occu": 1
                    }
                ],
                "abc": [
                    0.63127581,
                    0.29944791,
                    0.75
                ],
                "xyz": [
                    1.9257091246851579,
                    2.924172539709415,
                    6.743931615000001
                ],
                "label": "O",
                "properties": {}
            },
            {
                "species": [
                    {
                        "element": "O",
                        "occu": 1
                    }
                ],
                "abc": [
                    0.99507365,
                    0.75,
                    0.0
                ],
                "xyz": [
                    3.0354757416394036,
                    7.323909539999999,
                    0.0
                ],
                "label": "O",
                "properties": {}
            },
            {
                "species": [
                    {
                        "element": "O",
                        "occu": 1
                    }
                ],
                "abc": [
                    0.00492635,
                    0.25,
                    0.5
                ],
                "xyz": [
                    0.0150278483605965,
                    2.44130318,
                    4.49595441
                ],
                "label": "O",
                "properties": {}
            },
            {
                "species": [
                    {
                        "element": "O",
                        "occu": 1
                    }
                ],
                "abc": [
                    0.63385127,
                    0.45639095,
                    0.11705389
                ],
                "xyz": [
                    1.9335655746610592,
                    4.456754710232884,
                    1.0525379059063098
                ],
                "label": "O",
                "properties": {}
            },
            {
                "species": [
                    {
                        "element": "O",
                        "occu": 1
                    }
                ],
                "abc": [
                    0.63127581,
                    0.20055209,
                    0.25
                ],
                "xyz": [
                    1.9257091246851579,
                    1.9584338202905844,
                    2.247977205
                ],
                "label": "O",
                "properties": {}
            },
            {
                "species": [
                    {
                        "element": "O",
                        "occu": 1
                    }
                ],
                "abc": [
                    0.36872419,
                    0.70055209,
                    0.25
                ],
                "xyz": [
                    1.124794465314842,
                    6.841040180290584,
                    2.247977205
                ],
                "label": "O",
                "properties": {}
            },
            {
                "species": [
                    {
                        "element": "O",
                        "occu": 1
                    }
                ],
                "abc": [
                    0.00492635,
                    0.25,
                    0.0
                ],
                "xyz": [
                    0.0150278483605965,
                    2.44130318,
                    0.0
                ],
                "label": "O",
                "properties": {}
            },
            {
                "species": [
                    {
                        "element": "O",
                        "occu": 1
                    }
                ],
                "abc": [
                    0.63385127,
                    0.04360905,
                    0.88294611
                ],
                "xyz": [
                    1.9335655746610592,
                    0.425851649767116,
                    7.939370914093691
                ],
                "label": "O",
                "properties": {}
            },
            {
                "species": [
                    {
                        "element": "O",
                        "occu": 1
                    }
                ],
                "abc": [
                    0.36614873,
                    0.54360905,
                    0.88294611
                ],
                "xyz": [
                    1.1169380153389405,
                    5.308458009767116,
                    7.939370914093691
                ],
                "label": "O",
                "properties": {}
            }
        ]
    },
    "spacegroup": {
        "source": "spglib",
        "symbol": "Pbcm",
        "number": 57,
        "point_group": "mmm",
        "crystal_system": "orthorhombic",
        "hall": "-P 2c 2b"
    },
    "dielectric": {
        "epsilon_ionic": [
            [
                4.6687709,
                1.7e-07,
                9.7e-07
            ],
            [
                1.7e-07,
                5.15223284,
                5e-07
            ],
            [
                9.7e-07,
                5e-07,
                9.27227054
            ]
        ],
        "epsilon_ionic_avg": 6.3644247599999995,
        "epsilon_ionic_eig": [
            4.6687708999997355,
            9.272270540000264,
            5.15223284
        ],
        "epsilon_electronic": [
            [
                5.50764917,
                0.0,
                0.0
            ],
            [
                0.0,
                11.94965885,
                0.0
            ],
            [
                0.0,
                0.0,
                13.88705257
            ]
        ],
        "epsilon_electronic_avg": 10.448120196666666,
        "epsilon_electronic_eig": [
            5.50764917,
            11.94965885,
            13.88705257
        ]
    },
    "phonon": {
        "lowest_freq": -0.1009722135788163,
        "frequency": [
            -0.1009722135788163,
            -0.08723240610410972,
            -0.06692892454795984,
            1.9012946038844112,
            2.4621467469378233,
            2.8334431521974635,
            2.837928055707607,
            3.2639564825871905,
            3.371624677647995,
            3.4186300722832477,
            3.894752649280622,
            4.2478788661398195,
            4.416382203980022,
            4.545986451137617,
            4.744001097335919,
            5.16888807715544,
            5.280179190585179,
            5.292699980376264,
            5.562371252046686,
            5.584457737183031,
            5.973455665530229,
            6.037597161183589,
            6.255047494314234,
            6.348777756717326,
            6.426583680393454,
            6.477182111736096,
            6.483424602206811,
            6.596642753767791,
            6.69858001881158,
            6.797853194185727,
            7.122248199825411,
            7.151828931299285,
            7.237074381195247,
            7.503120323447351,
            7.539936903180699,
            7.853470086583001,
            8.105346497909371,
            8.12227821009114,
            8.4198248728161,
            8.56403703100138,
            8.821673388614746,
            9.341265758611106,
            9.50055350914342,
            9.916467382589696,
            10.12733619728185,
            10.283028061342616,
            10.859267844511306,
            10.865085573266324,
            11.038114941708619,
            11.154680792306745,
            11.244731086660718,
            11.304885809009173,
            13.602084572729547,
            13.786216364134496,
            13.973782292945577,
            14.201858249899658,
            15.071047680884167,
            15.334634546620432,
            15.4501197819228,
            15.776958598463578,
            16.235973525581286,
            16.295481431991252,
            16.49085928934489,
            16.549487410388913,
            16.59937741543129,
            17.134333989157145,
            17.50702693681881,
            17.56508815353658,
            17.702042847840595,
            18.04893903695573,
            18.16048460046339,
            18.576955148653678,
            18.737967455033814,
            18.98260149336779,
            19.162008529274022,
            19.357390764227212,
            19.556649269150977,
            19.568006151356315,
            19.63324593445447,
            20.026785419624183,
            20.130212624338384,
            20.207030521066642,
            20.2326693367153,
            20.320805009025754
        ]
    },
    "born_effective_charge": {
        "avg_abs_trace": 1.7140845238095235,
        "tensors": [
            [
                [
                    2.27749,
                    -0.31037,
                    0.0
                ],
                [
                    0.16534,
                    2.37295,
                    0.0
                ],
                [
                    3e-05,
                    -2e-05,
                    2.56682
                ]
            ],
            [
                [
                    2.27749,
                    0.31037,
                    0.0
                ],
                [
                    -0.16519,
                    2.3725,
                    0.0
                ],
                [
                    3e-05,
                    2e-05,
                    2.56682
                ]
            ],
            [
                [
                    2.27718,
                    0.31047,
                    0.0
                ],
                [
                    -0.16534,
                    2.37295,
                    0.0
                ],
                [
                    -3e-05,
                    -2e-05,
                    2.56682
                ]
            ],
            [
                [
                    2.27718,
                    -0.31047,
                    0.0
                ],
                [
                    0.16519,
                    2.3725,
                    0.0
                ],
                [
                    -3e-05,
                    2e-05,
                    2.56682
                ]
            ],
            [
                [
                    1.35692,
                    0.22592,
                    -0.14511
                ],
                [
                    -0.76783,
                    2.1663,
                    0.59201
                ],
                [
                    0.0371,
                    1.37144,
                    1.86788
                ]
            ],
            [
                [
                    1.35692,
                    -0.22592,
                    -0.14511
                ],
                [
                    0.76828,
                    2.16667,
                    -0.5909
                ],
                [
                    0.0371,
                    -1.37144,
                    1.86788
                ]
            ],
            [
                [
                    1.35621,
                    0.22648,
                    0.14598
                ],
                [
                    -0.76828,
                    2.16667,
                    -0.5909
                ],
                [
                    -0.0371,
                    -1.37144,
                    1.86788
                ]
            ],
            [
                [
                    1.35692,
                    -0.22592,
                    0.14511
                ],
                [
                    0.76828,
                    2.16667,
                    0.5909
                ],
                [
                    -0.03701,
                    1.36997,
                    1.86703
                ]
            ],
            [
                [
                    1.35621,
                    0.22648,
                    -0.14598
                ],
                [
                    -0.76828,
                    2.16667,
                    0.5909
                ],
                [
                    0.03701,
                    1.36997,
                    1.86703
                ]
            ],
            [
                [
                    1.35692,
                    0.22592,
                    0.14511
                ],
                [
                    -0.76783,
                    2.1663,
                    -0.59201
                ],
                [
                    -0.03701,
                    -1.36997,
                    1.86703
                ]
            ],
            [
                [
                    1.35621,
                    -0.22648,
                    -0.14598
                ],
                [
                    0.76783,
                    2.1663,
                    -0.59201
                ],
                [
                    0.03701,
                    -1.36997,
                    1.86703
                ]
            ],
            [
                [
                    1.35621,
                    -0.22648,
                    0.14598
                ],
                [
                    0.76783,
                    2.1663,
                    0.59201
                ],
                [
                    -0.0371,
                    1.37144,
                    1.86788
                ]
            ],
            [
                [
                    -1.336,
                    -0.23746,
                    -0.0759
                ],
                [
                    0.25079,
                    -1.59899,
                    -0.17791
                ],
                [
                    0.06184,
                    0.3268,
                    -1.46771
                ]
            ],
            [
                [
                    -1.33526,
                    -0.23763,
                    -0.07571
                ],
                [
                    0.25106,
                    -1.59938,
                    -0.17804
                ],
                [
                    0.06307,
                    0.32763,
                    -1.46315
                ]
            ],
            [
                [
                    -1.31071,
                    -0.0,
                    0.0
                ],
                [
                    0.00012,
                    -2.45224,
                    -0.56494
                ],
                [
                    0.00147,
                    -0.11875,
                    -0.62257
                ]
            ],
            [
                [
                    -1.33526,
                    0.23763,
                    0.07571
                ],
                [
                    -0.25079,
                    -1.59899,
                    -0.17791
                ],
                [
                    -0.06184,
                    0.3268,
                    -1.46771
                ]
            ],
            [
                [
                    -1.33526,
                    0.23763,
                    -0.07571
                ],
                [
                    -0.25079,
                    -1.59899,
                    0.17791
                ],
                [
                    0.06307,
                    -0.32763,
                    -1.46315
                ]
            ],
            [
                [
                    -1.00916,
                    0.47036,
                    0.0
                ],
                [
                    0.21177,
                    -1.05517,
                    0.0
                ],
                [
                    -0.00189,
                    -0.00106,
                    -2.74829
                ]
            ],
            [
                [
                    -1.336,
                    0.23746,
                    0.0759
                ],
                [
                    -0.25106,
                    -1.59938,
                    -0.17804
                ],
                [
                    -0.06307,
                    0.32763,
                    -1.46315
                ]
            ],
            [
                [
                    -1.00842,
                    -0.47114,
                    0.0
                ],
                [
                    -0.21177,
                    -1.05517,
                    0.0
                ],
                [
                    0.00189,
                    -0.00106,
                    -2.74829
                ]
            ],
            [
                [
                    -1.31071,
                    -0.0,
                    0.0
                ],
                [
                    0.00012,
                    -2.45224,
                    0.56494
                ],
                [
                    0.00147,
                    0.11875,
                    -0.62257
                ]
            ],
            [
                [
                    -1.31013,
                    -0.0,
                    0.0
                ],
                [
                    -0.00012,
                    -2.45224,
                    -0.56494
                ],
                [
                    -0.00147,
                    -0.11875,
                    -0.62257
                ]
            ],
            [
                [
                    -1.336,
                    -0.23746,
                    0.0759
                ],
                [
                    0.25079,
                    -1.59899,
                    0.17791
                ],
                [
                    -0.06307,
                    -0.32763,
                    -1.46315
                ]
            ],
            [
                [
                    -1.00842,
                    0.47114,
                    0.0
                ],
                [
                    0.21243,
                    -1.055,
                    0.0
                ],
                [
                    0.00189,
                    0.00106,
                    -2.74829
                ]
            ],
            [
                [
                    -1.00916,
                    -0.47036,
                    0.0
                ],
                [
                    -0.21243,
                    -1.055,
                    0.0
                ],
                [
                    -0.00189,
                    0.00106,
                    -2.74829
                ]
            ],
            [
                [
                    -1.31013,
                    -0.0,
                    0.0
                ],
                [
                    -0.00012,
                    -2.45224,
                    0.56494
                ],
                [
                    -0.00147,
                    0.11875,
                    -0.62257
                ]
            ],
            [
                [
                    -1.336,
                    0.23746,
                    -0.0759
                ],
                [
                    -0.25106,
                    -1.59938,
                    0.17804
                ],
                [
                    0.06184,
                    -0.3268,
                    -1.46771
                ]
            ],
            [
                [
                    -1.33526,
                    -0.23763,
                    0.07571
                ],
                [
                    0.25106,
                    -1.59938,
                    0.17804
                ],
                [
                    -0.06184,
                    -0.3268,
                    -1.46771
                ]
            ]
        ]
    },
    "band_gap": 0.5950999999999995,
    "is_direct": false,
    "formula": "Mg(CuO2)2"
}