{
    "mp_id": "mvc-6101",
    "nelements": 3,
    "nsites": 14,
    "elements": [
        "Ca",
        "Cu",
        "O"
    ],
    "structure": {
        "@module": "pymatgen.core.structure",
        "@class": "Structure",
        "charge": null,
        "lattice": {
            "matrix": [
                [
                    -2.83514557,
                    2.83514554,
                    4.65932002
                ],
                [
                    2.83514557,
                    -2.83514554,
                    4.65932002
                ],
                [
                    2.83514554,
                    2.83514557,
                    -4.65932002
                ]
            ],
            "a": 6.146980045912409,
            "b": 6.146980045912409,
            "c": 6.146980045912409,
            "alpha": 125.06753600117355,
            "beta": 125.06753600117355,
            "gamma": 81.42620038974832,
            "volume": 149.80739507437482
        },
        "sites": [
            {
                "species": [
                    {
                        "element": "Ca",
                        "occu": 1
                    }
                ],
                "abc": [
                    0.75,
                    0.25,
                    0.5
                ],
                "xyz": [
                    -1.4999999908837935e-08,
                    2.8351455550000004,
                    2.32966001
                ],
                "label": "Ca",
                "properties": {}
            },
            {
                "species": [
                    {
                        "element": "Ca",
                        "occu": 1
                    }
                ],
                "abc": [
                    0.0,
                    0.0,
                    0.0
                ],
                "xyz": [
                    0.0,
                    0.0,
                    0.0
                ],
                "label": "Ca",
                "properties": {}
            },
            {
                "species": [
                    {
                        "element": "Cu",
                        "occu": 1
                    }
                ],
                "abc": [
                    0.875,
                    0.625,
                    0.25
                ],
                "xyz": [
                    -7.499999732374363e-09,
                    1.4175727775000002,
                    5.824150025
                ],
                "label": "Cu",
                "properties": {}
            },
            {
                "species": [
                    {
                        "element": "Cu",
                        "occu": 1
                    }
                ],
                "abc": [
                    0.375,
                    0.625,
                    0.75
                ],
                "xyz": [
                    2.8351455475000003,
                    1.4175727925000001,
                    1.1648300049999998
                ],
                "label": "Cu",
                "properties": {}
            },
            {
                "species": [
                    {
                        "element": "Cu",
                        "occu": 1
                    }
                ],
                "abc": [
                    0.375,
                    0.125,
                    0.75
                ],
                "xyz": [
                    1.4175727625000003,
                    2.8351455625,
                    -1.1648300050000002
                ],
                "label": "Cu",
                "properties": {}
            },
            {
                "species": [
                    {
                        "element": "Cu",
                        "occu": 1
                    }
                ],
                "abc": [
                    0.375,
                    0.625,
                    0.25
                ],
                "xyz": [
                    1.4175727775,
                    7.500000176463573e-09,
                    3.4944900150000002
                ],
                "label": "Cu",
                "properties": {}
            },
            {
                "species": [
                    {
                        "element": "O",
                        "occu": 1
                    }
                ],
                "abc": [
                    0.02501442,
                    0.94155022,
                    0.36619216
                ],
                "xyz": [
                    3.6367204823233723,
                    -1.560304305427601,
                    2.79732751552105
                ],
                "label": "O",
                "properties": {}
            },
            {
                "species": [
                    {
                        "element": "O",
                        "occu": 1
                    }
                ],
                "abc": [
                    0.05844978,
                    0.42464194,
                    0.0834642
                ],
                "xyz": [
                    1.2748412345723992,
                    -0.8015749123233724,
                    1.8619925044789503
                ],
                "label": "O",
                "properties": {}
            },
            {
                "species": [
                    {
                        "element": "O",
                        "occu": 1
                    }
                ],
                "abc": [
                    0.34117774,
                    0.97498558,
                    0.9165358
                ],
                "xyz": [
                    4.395449875427601,
                    0.8015749423233722,
                    1.86199250447895
                ],
                "label": "O",
                "properties": {}
            },
            {
                "species": [
                    {
                        "element": "O",
                        "occu": 1
                    }
                ],
                "abc": [
                    0.17464194,
                    0.59117774,
                    0.86619216
                ],
                "xyz": [
                    3.6367204673233724,
                    1.274841249572399,
                    -0.46766750552104996
                ],
                "label": "O",
                "properties": {}
            },
            {
                "species": [
                    {
                        "element": "O",
                        "occu": 1
                    }
                ],
                "abc": [
                    0.40882226,
                    0.27501442,
                    0.5834642
                ],
                "xyz": [
                    1.2748412195723993,
                    2.0335706426766276,
                    0.46766750552104996
                ],
                "label": "O",
                "properties": {}
            },
            {
                "species": [
                    {
                        "element": "O",
                        "occu": 1
                    }
                ],
                "abc": [
                    0.69155022,
                    0.82535806,
                    0.4165358
                ],
                "xyz": [
                    1.5603043204276008,
                    0.8015749273233725,
                    5.12698752552105
                ],
                "label": "O",
                "properties": {}
            },
            {
                "species": [
                    {
                        "element": "O",
                        "occu": 1
                    }
                ],
                "abc": [
                    0.57535806,
                    0.65882226,
                    0.63380784
                ],
                "xyz": [
                    2.0335706276766277,
                    1.5603043354276007,
                    2.79732751552105
                ],
                "label": "O",
                "properties": {}
            },
            {
                "species": [
                    {
                        "element": "O",
                        "occu": 1
                    }
                ],
                "abc": [
                    0.72498558,
                    0.30844978,
                    0.13380784
                ],
                "xyz": [
                    -0.8015749273233723,
                    1.560304320427601,
                    4.191652514478951
                ],
                "label": "O",
                "properties": {}
            }
        ]
    },
    "spacegroup": {
        "source": "spglib",
        "symbol": "I4_1/a",
        "number": 88,
        "point_group": "4/m",
        "crystal_system": "tetragonal",
        "hall": "I 4bw -1bw"
    },
    "dielectric": {
        "epsilon_ionic": [
            [
                3.70747886,
                -0.00017684,
                -3e-08
            ],
            [
                -0.00017684,
                3.70751907,
                -0.0
            ],
            [
                -3e-08,
                -0.0,
                3.74096936
            ]
        ],
        "epsilon_ionic_avg": 3.7186557633333326,
        "epsilon_ionic_eig": [
            3.707320985797197,
            3.7076769442027753,
            3.7409693600000264
        ],
        "epsilon_electronic": [
            [
                7.16187684,
                -1.05e-06,
                0.0
            ],
            [
                1.05e-06,
                7.16187684,
                0.0
            ],
            [
                0.0,
                0.0,
                12.07598877
            ]
        ],
        "epsilon_electronic_avg": 8.79991415,
        "epsilon_electronic_eig": [
            7.16187684,
            7.16187684,
            12.07598877
        ]
    },
    "phonon": {
        "lowest_freq": -0.09276148349648745,
        "frequency": [
            -0.09276148349648745,
            -0.04428742172384826,
            -0.04428742172384826,
            5.081647222749654,
            5.102406365643923,
            5.5418854745358255,
            5.664566944804,
            5.664566944804,
            5.95282994420116,
            6.028713143075235,
            6.028713143075235,
            6.472670792646489,
            6.472670792646489,
            6.763544809277749,
            6.879033256144814,
            7.12669011297328,
            8.596935582819858,
            8.596935582819858,
            8.664634039977962,
            8.664634039977962,
            9.193556923106783,
            10.27417085659221,
            10.27417085659221,
            10.987925859884555,
            11.495457638966075,
            11.845740718613703,
            13.897723592110498,
            13.897723592110498,
            13.906524546538984,
            15.341288141057774,
            16.71284056384261,
            16.75222203115484,
            17.01947494520639,
            17.01947494520639,
            17.64653544432121,
            17.64653544432121,
            17.85054495733516,
            18.881417087279278,
            19.367206442628415,
            19.51929651375029,
            19.51929651375029,
            20.280871857466668
        ]
    },
    "born_effective_charge": {
        "avg_abs_trace": 1.6756561904761902,
        "tensors": [
            [
                [
                    2.52043,
                    0.0433,
                    0.00038
                ],
                [
                    -0.04343,
                    2.52043,
                    0.00018
                ],
                [
                    0.0,
                    0.0,
                    2.56908
                ]
            ],
            [
                [
                    2.52043,
                    0.0433,
                    -0.00038
                ],
                [
                    -0.04343,
                    2.52043,
                    -0.00018
                ],
                [
                    0.0,
                    0.0,
                    2.56908
                ]
            ],
            [
                [
                    2.22104,
                    -0.56659,
                    0.24945
                ],
                [
                    -0.60273,
                    0.86109,
                    0.47242
                ],
                [
                    -1.01813,
                    0.25723,
                    1.90996
                ]
            ],
            [
                [
                    2.22104,
                    -0.56659,
                    -0.24945
                ],
                [
                    -0.60273,
                    0.86109,
                    -0.47242
                ],
                [
                    1.01813,
                    -0.25723,
                    1.90996
                ]
            ],
            [
                [
                    0.86139,
                    0.60263,
                    0.4727
                ],
                [
                    0.56637,
                    2.22101,
                    -0.24945
                ],
                [
                    0.25723,
                    1.01813,
                    1.90996
                ]
            ],
            [
                [
                    0.86139,
                    0.60263,
                    -0.4727
                ],
                [
                    0.56637,
                    2.22101,
                    0.24945
                ],
                [
                    -0.25723,
                    -1.01813,
                    1.90996
                ]
            ],
            [
                [
                    -1.27166,
                    -0.34667,
                    -0.30489
                ],
                [
                    -0.30704,
                    -1.52948,
                    -0.54771
                ],
                [
                    -0.29779,
                    -0.53957,
                    -1.59733
                ]
            ],
            [
                [
                    -1.52942,
                    0.30672,
                    0.54812
                ],
                [
                    0.34714,
                    -1.2719,
                    -0.30503
                ],
                [
                    0.53952,
                    -0.29758,
                    -1.59717
                ]
            ],
            [
                [
                    -1.52981,
                    0.30718,
                    -0.54795
                ],
                [
                    0.34667,
                    -1.27168,
                    0.30535
                ],
                [
                    -0.53952,
                    0.29758,
                    -1.59717
                ]
            ],
            [
                [
                    -1.27166,
                    -0.34667,
                    0.30489
                ],
                [
                    -0.30704,
                    -1.52948,
                    0.54771
                ],
                [
                    0.29758,
                    0.53952,
                    -1.59717
                ]
            ],
            [
                [
                    -1.52942,
                    0.30672,
                    -0.54812
                ],
                [
                    0.34714,
                    -1.2719,
                    0.30503
                ],
                [
                    -0.53957,
                    0.29779,
                    -1.59733
                ]
            ],
            [
                [
                    -1.52981,
                    0.30718,
                    0.54795
                ],
                [
                    0.34667,
                    -1.27168,
                    -0.30535
                ],
                [
                    0.53957,
                    -0.29779,
                    -1.59733
                ]
            ],
            [
                [
                    -1.27196,
                    -0.34657,
                    0.30575
                ],
                [
                    -0.30698,
                    -1.52948,
                    0.54866
                ],
                [
                    0.29779,
                    0.53957,
                    -1.59733
                ]
            ],
            [
                [
                    -1.27196,
                    -0.34657,
                    -0.30575
                ],
                [
                    -0.30698,
                    -1.52948,
                    -0.54866
                ],
                [
                    -0.29758,
                    -0.53952,
                    -1.59717
                ]
            ]
        ]
    },
    "band_gap": 0.7956000000000003,
    "is_direct": false,
    "formula": "Ca(CuO2)2"
}