{
    "mp_id": "mvc-15350",
    "nelements": 3,
    "nsites": 13,
    "elements": [
        "Ca",
        "O",
        "Sn"
    ],
    "structure": {
        "@module": "pymatgen.core.structure",
        "@class": "Structure",
        "charge": null,
        "lattice": {
            "matrix": [
                [
                    5.66478645,
                    -3.17547621,
                    0.00013643
                ],
                [
                    5.66478645,
                    3.17547621,
                    0.00013643
                ],
                [
                    -1.8726323,
                    0.0,
                    5.0058992
                ]
            ],
            "a": 6.494109230910172,
            "b": 6.494109230910172,
            "c": 5.344696299282489,
            "alpha": 107.79477818110784,
            "beta": 107.79477818110784,
            "gamma": 58.54685443759346,
            "volume": 180.09780290378544
        },
        "sites": [
            {
                "species": [
                    {
                        "element": "Ca",
                        "occu": 1
                    }
                ],
                "abc": [
                    0.28054172,
                    0.28054172,
                    0.34672564
                ],
                "xyz": [
                    2.529128235529216,
                    0.0,
                    1.7357501525092074
                ],
                "label": "Ca",
                "properties": {}
            },
            {
                "species": [
                    {
                        "element": "Ca",
                        "occu": 1
                    }
                ],
                "abc": [
                    0.71945828,
                    0.71945828,
                    0.65327436
                ],
                "xyz": [
                    6.927812364470784,
                    0.0,
                    3.270421907490793
                ],
                "label": "Ca",
                "properties": {}
            },
            {
                "species": [
                    {
                        "element": "Sn",
                        "occu": 1
                    }
                ],
                "abc": [
                    0.0,
                    0.0,
                    0.5
                ],
                "xyz": [
                    -0.93631615,
                    0.0,
                    2.5029496
                ],
                "label": "Sn",
                "properties": {}
            },
            {
                "species": [
                    {
                        "element": "Sn",
                        "occu": 1
                    }
                ],
                "abc": [
                    0.73821252,
                    0.26178748,
                    0.0
                ],
                "xyz": [
                    5.664786450000001,
                    -1.5128763803682985,
                    0.00013643
                ],
                "label": "Sn",
                "properties": {}
            },
            {
                "species": [
                    {
                        "element": "Sn",
                        "occu": 1
                    }
                ],
                "abc": [
                    0.26178748,
                    0.73821252,
                    0.0
                ],
                "xyz": [
                    5.664786450000001,
                    1.5128763803682985,
                    0.00013643
                ],
                "label": "Sn",
                "properties": {}
            },
            {
                "species": [
                    {
                        "element": "O",
                        "occu": 1
                    }
                ],
                "abc": [
                    0.60905257,
                    0.60905257,
                    0.93918308
                ],
                "xyz": [
                    5.141560920525869,
                    0.0,
                    4.701622014909786
                ],
                "label": "O",
                "properties": {}
            },
            {
                "species": [
                    {
                        "element": "O",
                        "occu": 1
                    }
                ],
                "abc": [
                    0.39094743,
                    0.39094743,
                    0.06081692
                ],
                "xyz": [
                    4.315379679474131,
                    0.0,
                    0.3045500450902138
                ],
                "label": "O",
                "properties": {}
            },
            {
                "species": [
                    {
                        "element": "O",
                        "occu": 1
                    }
                ],
                "abc": [
                    0.10264854,
                    0.10264854,
                    0.91448861
                ],
                "xyz": [
                    -0.5495367920595371,
                    0.0,
                    4.577865809888737
                ],
                "label": "O",
                "properties": {}
            },
            {
                "species": [
                    {
                        "element": "O",
                        "occu": 1
                    }
                ],
                "abc": [
                    0.89735146,
                    0.89735146,
                    0.08551139
                ],
                "xyz": [
                    10.006477392059537,
                    0.0,
                    0.42830625011126366
                ],
                "label": "O",
                "properties": {}
            },
            {
                "species": [
                    {
                        "element": "O",
                        "occu": 1
                    }
                ],
                "abc": [
                    0.11033895,
                    0.66829514,
                    0.60170536
                ],
                "xyz": [
                    3.284022950320953,
                    1.7717766075672396,
                    3.0121826093086104
                ],
                "label": "O",
                "properties": {}
            },
            {
                "species": [
                    {
                        "element": "O",
                        "occu": 1
                    }
                ],
                "abc": [
                    0.66829514,
                    0.11033895,
                    0.60170536
                ],
                "xyz": [
                    3.284022950320953,
                    -1.7717766075672396,
                    3.0121826093086104
                ],
                "label": "O",
                "properties": {}
            },
            {
                "species": [
                    {
                        "element": "O",
                        "occu": 1
                    }
                ],
                "abc": [
                    0.33170486,
                    0.88966105,
                    0.39829464
                ],
                "xyz": [
                    6.1729176496790465,
                    1.7717766075672396,
                    1.993989450691389
                ],
                "label": "O",
                "properties": {}
            },
            {
                "species": [
                    {
                        "element": "O",
                        "occu": 1
                    }
                ],
                "abc": [
                    0.88966105,
                    0.33170486,
                    0.39829464
                ],
                "xyz": [
                    6.1729176496790465,
                    -1.7717766075672396,
                    1.993989450691389
                ],
                "label": "O",
                "properties": {}
            }
        ]
    },
    "spacegroup": {
        "source": "spglib",
        "symbol": "C2/m",
        "number": 12,
        "point_group": "2/m",
        "crystal_system": "monoclinic",
        "hall": "-C 2y"
    },
    "dielectric": {
        "epsilon_ionic": [
            [
                5.34172926,
                0.0,
                0.12508707
            ],
            [
                0.0,
                5.75169918,
                0.0
            ],
            [
                0.12508707,
                0.0,
                6.04556179
            ]
        ],
        "epsilon_ionic_avg": 5.712996743333334,
        "epsilon_ionic_eig": [
            5.320159470839025,
            6.067131579160975,
            5.75169918
        ],
        "epsilon_electronic": [
            [
                3.41713351,
                0.0,
                -0.12103943
            ],
            [
                0.0,
                3.80948083,
                0.0
            ],
            [
                -0.12103933,
                0.0,
                3.722347
            ]
        ],
        "epsilon_electronic_avg": 3.64965378,
        "epsilon_electronic_eig": [
            3.37495999385869,
            3.7645205161413102,
            3.80948083
        ]
    },
    "phonon": {
        "lowest_freq": -0.02365082469390574,
        "frequency": [
            -0.02365082469390574,
            -0.008214996007903048,
            -0.008040509270328556,
            3.5410824749217005,
            4.065100951438077,
            4.552910187552944,
            5.035912237286681,
            5.506822185957102,
            5.921672881443944,
            6.064747239796711,
            6.339098854928195,
            6.5775846959978,
            6.8481281573446635,
            6.889900567585046,
            7.860089994267925,
            8.304670990260142,
            8.814243054495831,
            8.856105909388704,
            8.887176092570542,
            10.314090881178371,
            10.58175406429391,
            10.642087320022133,
            11.608325375018882,
            11.712478841493873,
            13.18484956754868,
            13.238292161341645,
            13.640655198689164,
            13.906622058276758,
            14.222052501847415,
            14.555896337262615,
            15.236600500505116,
            15.721221596605451,
            15.801095024696473,
            16.169739417232286,
            16.212553959408528,
            16.882114235912493,
            17.523399941418923,
            18.022612983724002,
            18.388829886524995
        ]
    },
    "born_effective_charge": {
        "avg_abs_trace": 2.437129230769231,
        "tensors": [
            [
                [
                    2.88477,
                    0.0,
                    0.19113
                ],
                [
                    -3e-05,
                    2.19159,
                    3e-05
                ],
                [
                    0.25847,
                    0.0,
                    2.3015
                ]
            ],
            [
                [
                    2.88508,
                    0.0,
                    0.1909
                ],
                [
                    3e-05,
                    2.19159,
                    -3e-05
                ],
                [
                    0.25852,
                    0.0,
                    2.30141
                ]
            ],
            [
                [
                    3.26826,
                    0.0,
                    -0.97957
                ],
                [
                    -0.0,
                    3.65854,
                    0.0
                ],
                [
                    -1.04318,
                    0.0,
                    4.24676
                ]
            ],
            [
                [
                    2.53006,
                    -4e-05,
                    -0.14492
                ],
                [
                    0.0,
                    4.49578,
                    0.0
                ],
                [
                    -0.15261,
                    7e-05,
                    3.77141
                ]
            ],
            [
                [
                    2.53006,
                    4e-05,
                    -0.14492
                ],
                [
                    0.0,
                    4.49579,
                    0.0
                ],
                [
                    -0.15261,
                    -7e-05,
                    3.77141
                ]
            ],
            [
                [
                    -1.9601,
                    0.0,
                    0.46819
                ],
                [
                    1e-05,
                    -2.33132,
                    2e-05
                ],
                [
                    0.34761,
                    0.0,
                    -1.51847
                ]
            ],
            [
                [
                    -1.96018,
                    0.0,
                    0.46826
                ],
                [
                    -1e-05,
                    -2.33132,
                    -2e-05
                ],
                [
                    0.34747,
                    0.0,
                    -1.51859
                ]
            ],
            [
                [
                    -1.57091,
                    0.0,
                    -0.00422
                ],
                [
                    1e-05,
                    -2.14112,
                    -5e-05
                ],
                [
                    0.10896,
                    0.0,
                    -2.36882
                ]
            ],
            [
                [
                    -1.57109,
                    0.0,
                    -0.00421
                ],
                [
                    -1e-05,
                    -2.14112,
                    5e-05
                ],
                [
                    0.10879,
                    0.0,
                    -2.36873
                ]
            ],
            [
                [
                    -1.75897,
                    -0.25165,
                    -0.0103
                ],
                [
                    -0.27895,
                    -2.0221,
                    0.04477
                ],
                [
                    -0.02039,
                    -0.02983,
                    -2.15445
                ]
            ],
            [
                [
                    -1.75897,
                    0.25165,
                    -0.0103
                ],
                [
                    0.27897,
                    -2.02212,
                    -0.0447
                ],
                [
                    -0.02039,
                    0.02983,
                    -2.15445
                ]
            ],
            [
                [
                    -1.759,
                    0.25144,
                    -0.01003
                ],
                [
                    0.27895,
                    -2.0221,
                    -0.04477
                ],
                [
                    -0.02033,
                    0.03004,
                    -2.15449
                ]
            ],
            [
                [
                    -1.759,
                    -0.25144,
                    -0.01003
                ],
                [
                    -0.27897,
                    -2.02212,
                    0.0447
                ],
                [
                    -0.02033,
                    -0.03004,
                    -2.15449
                ]
            ]
        ]
    },
    "band_gap": 2.5690999999999997,
    "is_direct": false,
    "formula": "Ca2Sn3O8"
}