{
    "mp_id": "mp-18578",
    "nelements": 4,
    "nsites": 28,
    "elements": [
        "As",
        "O",
        "Tl",
        "Zn"
    ],
    "structure": {
        "@module": "pymatgen.core.structure",
        "@class": "Structure",
        "charge": null,
        "lattice": {
            "matrix": [
                [
                    8.86834276,
                    0.0,
                    -0.00107619
                ],
                [
                    0.0,
                    5.61069348,
                    0.0
                ],
                [
                    -0.17084144,
                    0.0,
                    8.8984829
                ]
            ],
            "a": 8.868342825298836,
            "b": 5.61069348,
            "c": 8.900122736188175,
            "alpha": 90.0,
            "beta": 91.1068360623708,
            "gamma": 90.0,
            "volume": 442.76570207369724
        },
        "sites": [
            {
                "species": [
                    {
                        "element": "Tl",
                        "occu": 1
                    }
                ],
                "abc": [
                    0.50161834,
                    0.48281075,
                    0.32415702
                ],
                "xyz": [
                    4.39314392173931,
                    2.70890312709891,
                    2.8839658627436333
                ],
                "label": "Tl",
                "properties": {}
            },
            {
                "species": [
                    {
                        "element": "Tl",
                        "occu": 1
                    }
                ],
                "abc": [
                    0.49838166,
                    0.98281075,
                    0.67584298
                ],
                "xyz": [
                    4.304357398260691,
                    5.5142498670989095,
                    6.0134408472563665
                ],
                "label": "Tl",
                "properties": {}
            },
            {
                "species": [
                    {
                        "element": "Tl",
                        "occu": 1
                    }
                ],
                "abc": [
                    0.99666502,
                    0.51857647,
                    0.18767706
                ],
                "xyz": [
                    8.806703995076889,
                    2.9095736191104153,
                    1.6689685082044001
                ],
                "label": "Tl",
                "properties": {}
            },
            {
                "species": [
                    {
                        "element": "Tl",
                        "occu": 1
                    }
                ],
                "abc": [
                    0.00333498,
                    0.01857647,
                    0.81232294
                ],
                "xyz": [
                    -0.10920267507688883,
                    0.10422687911041562,
                    7.2284382017955995
                ],
                "label": "Tl",
                "properties": {}
            },
            {
                "species": [
                    {
                        "element": "Zn",
                        "occu": 1
                    }
                ],
                "abc": [
                    0.17939335,
                    0.49983628,
                    0.5992294
                ],
                "xyz": [
                    1.4885485030783103,
                    2.8044281572634544,
                    5.332039507747924
                ],
                "label": "Zn",
                "properties": {}
            },
            {
                "species": [
                    {
                        "element": "Zn",
                        "occu": 1
                    }
                ],
                "abc": [
                    0.82060665,
                    0.99983628,
                    0.4007706
                ],
                "xyz": [
                    7.20895281692169,
                    5.6097748972634545,
                    3.565367202252076
                ],
                "label": "Zn",
                "properties": {}
            },
            {
                "species": [
                    {
                        "element": "Zn",
                        "occu": 1
                    }
                ],
                "abc": [
                    0.32593198,
                    0.03412582,
                    0.0728754
                ],
                "xyz": [
                    2.878026376808889,
                    0.19146951577365362,
                    0.6481297359931038
                ],
                "label": "Zn",
                "properties": {}
            },
            {
                "species": [
                    {
                        "element": "Zn",
                        "occu": 1
                    }
                ],
                "abc": [
                    0.67406802,
                    0.53412582,
                    0.9271246
                ],
                "xyz": [
                    5.8194749431911115,
                    2.9968162557736537,
                    8.249276974006897
                ],
                "label": "Zn",
                "properties": {}
            },
            {
                "species": [
                    {
                        "element": "As",
                        "occu": 1
                    }
                ],
                "abc": [
                    0.31024096,
                    0.53116484,
                    0.935812
                ],
                "xyz": [
                    2.59144770182217,
                    2.980203104593243,
                    8.326973201396058
                ],
                "label": "As",
                "properties": {}
            },
            {
                "species": [
                    {
                        "element": "As",
                        "occu": 1
                    }
                ],
                "abc": [
                    0.81240815,
                    0.50101963,
                    0.6000181
                ],
                "xyz": [
                    7.10220597898743,
                    2.811067571393013,
                    5.338376497013542
                ],
                "label": "As",
                "properties": {}
            },
            {
                "species": [
                    {
                        "element": "As",
                        "occu": 1
                    }
                ],
                "abc": [
                    0.68975904,
                    0.03116484,
                    0.064188
                ],
                "xyz": [
                    6.106053618177831,
                    0.1748563645932432,
                    0.5704335086039423
                ],
                "label": "As",
                "properties": {}
            },
            {
                "species": [
                    {
                        "element": "As",
                        "occu": 1
                    }
                ],
                "abc": [
                    0.18759185,
                    0.00101963,
                    0.3999819
                ],
                "xyz": [
                    1.59529534101257,
                    0.0057208313930124,
                    3.5590302129864586
                ],
                "label": "As",
                "properties": {}
            },
            {
                "species": [
                    {
                        "element": "O",
                        "occu": 1
                    }
                ],
                "abc": [
                    0.67233884,
                    0.09223327,
                    0.25145683
                ],
                "xyz": [
                    5.919572037045764,
                    0.5174926066280796,
                    2.236860737506987
                ],
                "label": "O",
                "properties": {}
            },
            {
                "species": [
                    {
                        "element": "O",
                        "occu": 1
                    }
                ],
                "abc": [
                    0.32766116,
                    0.59223327,
                    0.74854317
                ],
                "xyz": [
                    2.777929282954237,
                    3.3228393466280797,
                    6.660545972493012
                ],
                "label": "O",
                "properties": {}
            },
            {
                "species": [
                    {
                        "element": "O",
                        "occu": 1
                    }
                ],
                "abc": [
                    0.22188008,
                    0.70437015,
                    0.43428414
                ],
                "xyz": [
                    1.8935148732094593,
                    3.9520050081116223,
                    3.8642312084079102
                ],
                "label": "O",
                "properties": {}
            },
            {
                "species": [
                    {
                        "element": "O",
                        "occu": 1
                    }
                ],
                "abc": [
                    0.77811992,
                    0.20437015,
                    0.56571586
                ],
                "xyz": [
                    6.803986446790541,
                    1.146658268111622,
                    5.033175501592089
                ],
                "label": "O",
                "properties": {}
            },
            {
                "species": [
                    {
                        "element": "O",
                        "occu": 1
                    }
                ],
                "abc": [
                    0.21202744,
                    0.75431603,
                    0.0226221
                ],
                "xyz": [
                    1.8764672203055106,
                    4.232236031380484,
                    0.20107418820143638
                ],
                "label": "O",
                "properties": {}
            },
            {
                "species": [
                    {
                        "element": "O",
                        "occu": 1
                    }
                ],
                "abc": [
                    0.78797256,
                    0.25431603,
                    0.9773779
                ],
                "xyz": [
                    6.821034099694491,
                    1.4268892913804845,
                    8.696332521798563
                ],
                "label": "O",
                "properties": {}
            },
            {
                "species": [
                    {
                        "element": "O",
                        "occu": 1
                    }
                ],
                "abc": [
                    0.32363344,
                    0.10228542,
                    0.28131886
                ],
                "xyz": [
                    2.8220313553763363,
                    0.5738921390930616,
                    2.5029627740857
                ],
                "label": "O",
                "properties": {}
            },
            {
                "species": [
                    {
                        "element": "O",
                        "occu": 1
                    }
                ],
                "abc": [
                    0.67636656,
                    0.60228542,
                    0.71868114
                ],
                "xyz": [
                    5.875469964623664,
                    3.3792388790930614,
                    6.3944439359143
                ],
                "label": "O",
                "properties": {}
            },
            {
                "species": [
                    {
                        "element": "O",
                        "occu": 1
                    }
                ],
                "abc": [
                    0.79649792,
                    0.66359785,
                    0.43709603
                ],
                "xyz": [
                    6.988942447003576,
                    3.7232441303370183,
                    3.888634365516362
                ],
                "label": "O",
                "properties": {}
            },
            {
                "species": [
                    {
                        "element": "O",
                        "occu": 1
                    }
                ],
                "abc": [
                    0.20350208,
                    0.16359785,
                    0.56290397
                ],
                "xyz": [
                    1.708558872996424,
                    0.917897390337018,
                    5.008772344483638
                ],
                "label": "O",
                "properties": {}
            },
            {
                "species": [
                    {
                        "element": "O",
                        "occu": 1
                    }
                ],
                "abc": [
                    0.21207307,
                    0.27237659,
                    0.96371611
                ],
                "xyz": [
                    1.716094026941875,
                    1.528221557617633,
                    8.575383094372315
                ],
                "label": "O",
                "properties": {}
            },
            {
                "species": [
                    {
                        "element": "O",
                        "occu": 1
                    }
                ],
                "abc": [
                    0.78792693,
                    0.77237659,
                    0.03628389
                ],
                "xyz": [
                    6.981407293058126,
                    4.333568297617633,
                    0.3220236156276842
                ],
                "label": "O",
                "properties": {}
            },
            {
                "species": [
                    {
                        "element": "O",
                        "occu": 1
                    }
                ],
                "abc": [
                    0.98553616,
                    0.53524857,
                    0.68611459
                ],
                "xyz": [
                    8.622855664693594,
                    3.003115661878324,
                    6.10431832239548
                ],
                "label": "O",
                "properties": {}
            },
            {
                "species": [
                    {
                        "element": "O",
                        "occu": 1
                    }
                ],
                "abc": [
                    0.01446384,
                    0.03524857,
                    0.31388541
                ],
                "xyz": [
                    0.07464565530640802,
                    0.1977689218783236,
                    2.793088387604519
                ],
                "label": "O",
                "properties": {}
            },
            {
                "species": [
                    {
                        "element": "O",
                        "occu": 1
                    }
                ],
                "abc": [
                    0.51633111,
                    0.99973733,
                    0.97672016
                ],
                "xyz": [
                    4.412136982519834,
                    5.609219719143608,
                    8.690771971467992
                ],
                "label": "O",
                "properties": {}
            },
            {
                "species": [
                    {
                        "element": "O",
                        "occu": 1
                    }
                ],
                "abc": [
                    0.48366889,
                    0.49973733,
                    0.02327984
                ],
                "xyz": [
                    4.285364337480167,
                    2.8038729791436086,
                    0.2066347385320069
                ],
                "label": "O",
                "properties": {}
            }
        ]
    },
    "spacegroup": {
        "source": "spglib",
        "symbol": "P2_1",
        "number": 4,
        "point_group": "2",
        "crystal_system": "monoclinic",
        "hall": "P 2yb"
    },
    "dielectric": {
        "epsilon_ionic": [
            [
                9.3613596,
                0.00021225,
                0.13972469
            ],
            [
                0.00021225,
                11.38990941,
                2.402e-05
            ],
            [
                0.13972469,
                2.402e-05,
                6.40046014
            ]
        ],
        "epsilon_ionic_avg": 9.050576383333334,
        "epsilon_ionic_eig": [
            9.367938560116626,
            6.393881157375551,
            11.389909432507825
        ],
        "epsilon_electronic": [
            [
                3.82459242,
                0.0,
                0.02553233
            ],
            [
                0.0,
                3.82405088,
                0.0
            ],
            [
                0.02553223,
                0.0,
                3.79451502
            ]
        ],
        "epsilon_electronic_avg": 3.814386106666667,
        "epsilon_electronic_eig": [
            3.839185794171173,
            3.779921645828827,
            3.82405088
        ]
    },
    "phonon": {
        "lowest_freq": -0.09000385980528994,
        "frequency": [
            -0.09000385980528994,
            -0.05223225426784625,
            -0.03349410341448013,
            0.9687275245614545,
            0.9959006943215744,
            1.0313476029195334,
            1.1849372036546582,
            1.2074682445691114,
            1.2461998804985113,
            1.4092448960403916,
            1.4281357630221838,
            1.5108763505421865,
            1.561154064193473,
            1.609907450889667,
            1.6968756438688668,
            1.8079278551788667,
            1.8526454733583293,
            1.903762828109182,
            2.2137887913390504,
            2.5889622136657753,
            2.6328285762586114,
            2.8525490919092893,
            2.914415745340417,
            3.1529455632483447,
            3.3277838134390745,
            3.5881381947233923,
            3.6761692101680787,
            3.7866915335105946,
            3.8309249101219858,
            3.9695279186645305,
            4.389321369347891,
            4.701371111427067,
            4.737171791314514,
            5.225403165732318,
            5.531340109528511,
            5.7720205253094345,
            5.857276062141857,
            6.230043693607501,
            6.511805434165441,
            6.596178863337935,
            6.842797738598853,
            6.903385547514289,
            7.401941878803278,
            7.579442895380916,
            7.915248857837839,
            8.177486776682949,
            8.556537510612541,
            8.635403862427038,
            8.979568977274669,
            9.28477891700347,
            9.55668197265612,
            10.561725660358952,
            10.703917607936743,
            11.13466140758255,
            11.350235819594861,
            11.499319804241457,
            12.060225304953997,
            12.333879984901532,
            12.656780194284192,
            12.744527687560224,
            12.771325000620365,
            12.958049634081865,
            13.267885926855518,
            13.832283530339339,
            13.944798176291558,
            13.99492981112426,
            14.388739209194005,
            15.161872653220007,
            23.01044282445908,
            23.060376644338707,
            23.34556471939395,
            23.37000140199565,
            23.4286439343177,
            23.49626085093625,
            23.54033815156661,
            23.676978064682654,
            24.0367854103501,
            24.144929582857376,
            24.211152273097678,
            24.41274636091125,
            24.481549674871154,
            24.565855040496924,
            24.84549973771845,
            25.365102158246998
        ]
    },
    "born_effective_charge": {
        "avg_abs_trace": 2.110309642857143,
        "tensors": [
            [
                [
                    1.91264,
                    0.02971,
                    0.13199
                ],
                [
                    -0.02494,
                    1.74672,
                    0.23789
                ],
                [
                    0.00802,
                    0.29201,
                    1.61458
                ]
            ],
            [
                [
                    1.91262,
                    -0.02963,
                    0.13193
                ],
                [
                    0.02494,
                    1.74672,
                    -0.23789
                ],
                [
                    0.00803,
                    -0.29198,
                    1.61455
                ]
            ],
            [
                [
                    1.8368,
                    -0.04265,
                    0.00471
                ],
                [
                    -0.0269,
                    1.85658,
                    -0.04214
                ],
                [
                    -0.06853,
                    -0.05037,
                    1.67764
                ]
            ],
            [
                [
                    1.83675,
                    0.04278,
                    0.0047
                ],
                [
                    0.0269,
                    1.85658,
                    0.04214
                ],
                [
                    -0.06855,
                    0.05042,
                    1.67761
                ]
            ],
            [
                [
                    2.14723,
                    -0.02192,
                    -0.10681
                ],
                [
                    0.04593,
                    2.33701,
                    -0.21179
                ],
                [
                    0.18665,
                    0.16134,
                    2.18957
                ]
            ],
            [
                [
                    2.14725,
                    0.02208,
                    -0.10697
                ],
                [
                    -0.04593,
                    2.33701,
                    0.21179
                ],
                [
                    0.1866,
                    -0.1613,
                    2.18958
                ]
            ],
            [
                [
                    2.01506,
                    -0.05579,
                    -0.32773
                ],
                [
                    -0.05473,
                    2.25728,
                    -0.06095
                ],
                [
                    0.033,
                    0.10355,
                    2.10433
                ]
            ],
            [
                [
                    2.01508,
                    0.05594,
                    -0.32776
                ],
                [
                    0.05473,
                    2.25728,
                    0.06095
                ],
                [
                    0.03299,
                    -0.10348,
                    2.1043
                ]
            ],
            [
                [
                    3.44598,
                    -0.08257,
                    0.01979
                ],
                [
                    -0.1843,
                    3.48598,
                    -0.14125
                ],
                [
                    0.10088,
                    -0.07955,
                    3.35944
                ]
            ],
            [
                [
                    3.34757,
                    -0.01119,
                    0.07558
                ],
                [
                    0.00024,
                    3.47601,
                    -0.00842
                ],
                [
                    -0.02087,
                    0.04594,
                    3.50616
                ]
            ],
            [
                [
                    3.44596,
                    0.08277,
                    0.01984
                ],
                [
                    0.1843,
                    3.48598,
                    0.14125
                ],
                [
                    0.10078,
                    0.07967,
                    3.35953
                ]
            ],
            [
                [
                    3.34765,
                    0.01137,
                    0.07547
                ],
                [
                    -0.00024,
                    3.47601,
                    0.00842
                ],
                [
                    -0.02078,
                    -0.04588,
                    3.50597
                ]
            ],
            [
                [
                    -1.47572,
                    0.305,
                    -0.10398
                ],
                [
                    0.22564,
                    -1.49047,
                    -0.29983
                ],
                [
                    -0.20048,
                    -0.2223,
                    -2.55609
                ]
            ],
            [
                [
                    -1.47617,
                    -0.30529,
                    -0.10342
                ],
                [
                    -0.22564,
                    -1.49047,
                    0.29983
                ],
                [
                    -0.20068,
                    0.22218,
                    -2.55588
                ]
            ],
            [
                [
                    -1.48749,
                    0.08565,
                    -0.00717
                ],
                [
                    0.24078,
                    -2.58382,
                    0.39594
                ],
                [
                    -0.08602,
                    0.32831,
                    -1.59754
                ]
            ],
            [
                [
                    -1.4876,
                    -0.086,
                    -0.00703
                ],
                [
                    -0.24078,
                    -2.58382,
                    -0.39594
                ],
                [
                    -0.08593,
                    -0.32817,
                    -1.59743
                ]
            ],
            [
                [
                    -1.76797,
                    0.10939,
                    0.24576
                ],
                [
                    0.17592,
                    -2.24563,
                    -0.21744
                ],
                [
                    0.23209,
                    -0.22988,
                    -1.50931
                ]
            ],
            [
                [
                    -1.7682,
                    -0.10937,
                    0.24589
                ],
                [
                    -0.17592,
                    -2.24563,
                    0.21744
                ],
                [
                    0.23215,
                    0.23,
                    -1.50936
                ]
            ],
            [
                [
                    -1.83039,
                    -0.52152,
                    0.63988
                ],
                [
                    -0.4747,
                    -1.57252,
                    0.19613
                ],
                [
                    0.58133,
                    0.14403,
                    -2.10695
                ]
            ],
            [
                [
                    -1.8302,
                    0.52161,
                    0.6398
                ],
                [
                    0.4747,
                    -1.57252,
                    -0.19613
                ],
                [
                    0.58225,
                    -0.14451,
                    -2.10734
                ]
            ],
            [
                [
                    -1.49296,
                    -0.14355,
                    0.03723
                ],
                [
                    -0.14368,
                    -1.95641,
                    0.52327
                ],
                [
                    0.00992,
                    0.56379,
                    -2.0931
                ]
            ],
            [
                [
                    -1.49293,
                    0.14347,
                    0.03705
                ],
                [
                    0.14368,
                    -1.95641,
                    -0.52327
                ],
                [
                    0.01004,
                    -0.56349,
                    -2.09268
                ]
            ],
            [
                [
                    -1.74965,
                    -0.47022,
                    -0.00043
                ],
                [
                    -0.35216,
                    -2.40264,
                    0.15665
                ],
                [
                    -0.08629,
                    0.10327,
                    -1.40023
                ]
            ],
            [
                [
                    -1.74908,
                    0.46971,
                    -0.00038
                ],
                [
                    0.35216,
                    -2.40264,
                    -0.15665
                ],
                [
                    -0.08585,
                    -0.10358,
                    -1.40007
                ]
            ],
            [
                [
                    -2.45493,
                    -0.10394,
                    -0.26953
                ],
                [
                    -0.05198,
                    -1.68591,
                    -0.12664
                ],
                [
                    -0.26223,
                    -0.12818,
                    -1.31519
                ]
            ],
            [
                [
                    -2.45511,
                    0.10401,
                    -0.26983
                ],
                [
                    0.05198,
                    -1.68591,
                    0.12664
                ],
                [
                    -0.26242,
                    0.12812,
                    -1.31515
                ]
            ],
            [
                [
                    -2.44596,
                    -0.05422,
                    -0.33923
                ],
                [
                    -0.05581,
                    -1.22218,
                    -0.1932
                ],
                [
                    -0.42797,
                    -0.09661,
                    -1.87348
                ]
            ],
            [
                [
                    -2.44623,
                    0.05438,
                    -0.33933
                ],
                [
                    0.05581,
                    -1.22218,
                    0.1932
                ],
                [
                    -0.4281,
                    0.09666,
                    -1.87345
                ]
            ]
        ]
    },
    "band_gap": 3.1887,
    "is_direct": false,
    "formula": "TlZnAsO4"
}