{
    "mp_id": "mp-17481",
    "nelements": 3,
    "nsites": 30,
    "elements": [
        "Mg",
        "O",
        "Ta"
    ],
    "structure": {
        "@module": "pymatgen.core.structure",
        "@class": "Structure",
        "charge": null,
        "lattice": {
            "matrix": [
                [
                    5.16594564,
                    -0.0,
                    0.0
                ],
                [
                    -2.58297332,
                    4.47384027,
                    0.0
                ],
                [
                    0.0,
                    0.0,
                    14.0695955
                ]
            ],
            "a": 5.16594564,
            "b": 5.1659459862938455,
            "c": 14.0695955,
            "alpha": 90.0,
            "beta": 90.0,
            "gamma": 120.00000418595667,
            "volume": 325.17108336213624
        },
        "sites": [
            {
                "species": [
                    {
                        "element": "Mg",
                        "occu": 1
                    }
                ],
                "abc": [
                    0.333333,
                    0.666667,
                    0.01651125
                ],
                "xyz": [
                    -2.9163063199888484e-06,
                    2.98256167128009,
                    0.23230660869937503
                ],
                "label": "Mg",
                "properties": {}
            },
            {
                "species": [
                    {
                        "element": "Mg",
                        "occu": 1
                    }
                ],
                "abc": [
                    0.666667,
                    0.333333,
                    0.48348875
                ],
                "xyz": [
                    2.58297523630632,
                    1.49127859871991,
                    6.802491141300625
                ],
                "label": "Mg",
                "properties": {}
            },
            {
                "species": [
                    {
                        "element": "Mg",
                        "occu": 1
                    }
                ],
                "abc": [
                    0.666667,
                    0.333333,
                    0.98348875
                ],
                "xyz": [
                    2.58297523630632,
                    1.49127859871991,
                    13.837288891300625
                ],
                "label": "Mg",
                "properties": {}
            },
            {
                "species": [
                    {
                        "element": "Mg",
                        "occu": 1
                    }
                ],
                "abc": [
                    0.333333,
                    0.666667,
                    0.51651125
                ],
                "xyz": [
                    -2.9163063199888484e-06,
                    2.98256167128009,
                    7.267104358699375
                ],
                "label": "Mg",
                "properties": {}
            },
            {
                "species": [
                    {
                        "element": "Mg",
                        "occu": 1
                    }
                ],
                "abc": [
                    0.333333,
                    0.666667,
                    0.81074425
                ],
                "xyz": [
                    -2.9163063199888484e-06,
                    2.98256167128009,
                    11.406843651450876
                ],
                "label": "Mg",
                "properties": {}
            },
            {
                "species": [
                    {
                        "element": "Mg",
                        "occu": 1
                    }
                ],
                "abc": [
                    0.666667,
                    0.333333,
                    0.68925575
                ],
                "xyz": [
                    2.58297523630632,
                    1.49127859871991,
                    9.697549598549124
                ],
                "label": "Mg",
                "properties": {}
            },
            {
                "species": [
                    {
                        "element": "Mg",
                        "occu": 1
                    }
                ],
                "abc": [
                    0.666667,
                    0.333333,
                    0.18925575
                ],
                "xyz": [
                    2.58297523630632,
                    1.49127859871991,
                    2.662751848549125
                ],
                "label": "Mg",
                "properties": {}
            },
            {
                "species": [
                    {
                        "element": "Mg",
                        "occu": 1
                    }
                ],
                "abc": [
                    0.333333,
                    0.666667,
                    0.31074425
                ],
                "xyz": [
                    -2.9163063199888484e-06,
                    2.98256167128009,
                    4.372045901450875
                ],
                "label": "Mg",
                "properties": {}
            },
            {
                "species": [
                    {
                        "element": "Ta",
                        "occu": 1
                    }
                ],
                "abc": [
                    0.0,
                    0.0,
                    0.35660117
                ],
                "xyz": [
                    0.0,
                    0.0,
                    5.017234216726735
                ],
                "label": "Ta",
                "properties": {}
            },
            {
                "species": [
                    {
                        "element": "Ta",
                        "occu": 1
                    }
                ],
                "abc": [
                    0.0,
                    0.0,
                    0.14339883
                ],
                "xyz": [
                    0.0,
                    0.0,
                    2.017563533273265
                ],
                "label": "Ta",
                "properties": {}
            },
            {
                "species": [
                    {
                        "element": "Ta",
                        "occu": 1
                    }
                ],
                "abc": [
                    0.0,
                    0.0,
                    0.64339883
                ],
                "xyz": [
                    0.0,
                    0.0,
                    9.052361283273266
                ],
                "label": "Ta",
                "properties": {}
            },
            {
                "species": [
                    {
                        "element": "Ta",
                        "occu": 1
                    }
                ],
                "abc": [
                    0.0,
                    0.0,
                    0.85660117
                ],
                "xyz": [
                    0.0,
                    0.0,
                    12.052031966726735
                ],
                "label": "Ta",
                "properties": {}
            },
            {
                "species": [
                    {
                        "element": "O",
                        "occu": 1
                    }
                ],
                "abc": [
                    0.28948321,
                    0.28948321,
                    0.75
                ],
                "xyz": [
                    0.7477271185347473,
                    1.2951016423868666,
                    10.552196625
                ],
                "label": "O",
                "properties": {}
            },
            {
                "species": [
                    {
                        "element": "O",
                        "occu": 1
                    }
                ],
                "abc": [
                    0.0,
                    0.71051679,
                    0.75
                ],
                "xyz": [
                    -1.8352459119820428,
                    3.1787386276131335,
                    10.552196625
                ],
                "label": "O",
                "properties": {}
            },
            {
                "species": [
                    {
                        "element": "O",
                        "occu": 1
                    }
                ],
                "abc": [
                    0.71051679,
                    0.0,
                    0.75
                ],
                "xyz": [
                    3.6704911134472957,
                    0.0,
                    10.552196625
                ],
                "label": "O",
                "properties": {}
            },
            {
                "species": [
                    {
                        "element": "O",
                        "occu": 1
                    }
                ],
                "abc": [
                    0.71051679,
                    0.71051679,
                    0.25
                ],
                "xyz": [
                    1.835245201465253,
                    3.1787386276131335,
                    3.517398875
                ],
                "label": "O",
                "properties": {}
            },
            {
                "species": [
                    {
                        "element": "O",
                        "occu": 1
                    }
                ],
                "abc": [
                    0.0,
                    0.28948321,
                    0.25
                ],
                "xyz": [
                    -0.7477274080179571,
                    1.2951016423868666,
                    3.517398875
                ],
                "label": "O",
                "properties": {}
            },
            {
                "species": [
                    {
                        "element": "O",
                        "occu": 1
                    }
                ],
                "abc": [
                    0.28948321,
                    0.0,
                    0.25
                ],
                "xyz": [
                    1.4954545265527044,
                    0.0,
                    3.517398875
                ],
                "label": "O",
                "properties": {}
            },
            {
                "species": [
                    {
                        "element": "O",
                        "occu": 1
                    }
                ],
                "abc": [
                    0.68055102,
                    0.65117761,
                    0.58423073
                ],
                "xyz": [
                    1.8337151813551882,
                    2.9132646145403545,
                    8.219890049769715
                ],
                "label": "O",
                "properties": {}
            },
            {
                "species": [
                    {
                        "element": "O",
                        "occu": 1
                    }
                ],
                "abc": [
                    0.34882239,
                    0.02937241,
                    0.58423073
                ],
                "xyz": [
                    1.7261293533807782,
                    0.1314074706849507,
                    8.219890049769715
                ],
                "label": "O",
                "properties": {}
            },
            {
                "species": [
                    {
                        "element": "O",
                        "occu": 1
                    }
                ],
                "abc": [
                    0.97062759,
                    0.31944898,
                    0.58423073
                ],
                "xyz": [
                    4.189081174182994,
                    1.4291637109344246,
                    8.219890049769715
                ],
                "label": "O",
                "properties": {}
            },
            {
                "species": [
                    {
                        "element": "O",
                        "occu": 1
                    }
                ],
                "abc": [
                    0.02937241,
                    0.34882239,
                    0.91576927
                ],
                "xyz": [
                    -0.7492626534128423,
                    1.5605756554596453,
                    12.884503200230284
                ],
                "label": "O",
                "properties": {}
            },
            {
                "species": [
                    {
                        "element": "O",
                        "occu": 1
                    }
                ],
                "abc": [
                    0.31944898,
                    0.97062759,
                    0.91576927
                ],
                "xyz": [
                    -0.8568491031924514,
                    4.342432799315049,
                    12.884503200230284
                ],
                "label": "O",
                "properties": {}
            },
            {
                "species": [
                    {
                        "element": "O",
                        "occu": 1
                    }
                ],
                "abc": [
                    0.65117761,
                    0.68055102,
                    0.91576927
                ],
                "xyz": [
                    1.6061030076863343,
                    3.0446765590655755,
                    12.884503200230284
                ],
                "label": "O",
                "properties": {}
            },
            {
                "species": [
                    {
                        "element": "O",
                        "occu": 1
                    }
                ],
                "abc": [
                    0.34882239,
                    0.31944898,
                    0.08423073
                ],
                "xyz": [
                    0.976869312313666,
                    1.4291637109344246,
                    1.185092299769715
                ],
                "label": "O",
                "properties": {}
            },
            {
                "species": [
                    {
                        "element": "O",
                        "occu": 1
                    }
                ],
                "abc": [
                    0.68055102,
                    0.02937241,
                    0.08423073
                ],
                "xyz": [
                    3.439821423192452,
                    0.1314074706849507,
                    1.185092299769715
                ],
                "label": "O",
                "properties": {}
            },
            {
                "species": [
                    {
                        "element": "O",
                        "occu": 1
                    }
                ],
                "abc": [
                    0.97062759,
                    0.65117761,
                    0.08423073
                ],
                "xyz": [
                    3.3322349734128425,
                    2.9132646145403545,
                    1.185092299769715
                ],
                "label": "O",
                "properties": {}
            },
            {
                "species": [
                    {
                        "element": "O",
                        "occu": 1
                    }
                ],
                "abc": [
                    0.02937241,
                    0.68055102,
                    0.41576927
                ],
                "xyz": [
                    -1.606108854182994,
                    3.0446765590655755,
                    5.849705450230285
                ],
                "label": "O",
                "properties": {}
            },
            {
                "species": [
                    {
                        "element": "O",
                        "occu": 1
                    }
                ],
                "abc": [
                    0.65117761,
                    0.97062759,
                    0.41576927
                ],
                "xyz": [
                    0.8568429666192219,
                    4.342432799315049,
                    5.849705450230285
                ],
                "label": "O",
                "properties": {}
            },
            {
                "species": [
                    {
                        "element": "O",
                        "occu": 1
                    }
                ],
                "abc": [
                    0.31944898,
                    0.34882239,
                    0.41576927
                ],
                "xyz": [
                    0.7492571386448126,
                    1.5605756554596453,
                    5.849705450230285
                ],
                "label": "O",
                "properties": {}
            }
        ]
    },
    "spacegroup": {
        "source": "spglib",
        "symbol": "P-3c1",
        "number": 165,
        "point_group": "-3m",
        "crystal_system": "trigonal",
        "hall": "-P 3 2\"c"
    },
    "dielectric": {
        "epsilon_ionic": [
            [
                7.52305318,
                -1e-08,
                -0.0
            ],
            [
                -1e-08,
                7.52299316,
                6.12e-06
            ],
            [
                -0.0,
                6.12e-06,
                9.2369565
            ]
        ],
        "epsilon_ionic_avg": 8.09433428,
        "epsilon_ionic_eig": [
            7.523053180001668,
            7.522993159976479,
            9.236956500021853
        ],
        "epsilon_electronic": [
            [
                3.77716691,
                0.0,
                -0.0
            ],
            [
                -0.0,
                3.77716611,
                0.0
            ],
            [
                -0.0,
                0.0,
                3.71843253
            ]
        ],
        "epsilon_electronic_avg": 3.7575885166666665,
        "epsilon_electronic_eig": [
            3.77716691,
            3.77716611,
            3.71843253
        ]
    },
    "phonon": {
        "lowest_freq": -0.061217016038884416,
        "frequency": [
            -0.061217016038884416,
            -0.017157510556119797,
            -0.017157508775557405,
            2.4205581977017148,
            2.4205584501229525,
            2.4221117406896266,
            2.422111992948962,
            3.5404117346663826,
            3.6911039990921926,
            3.691104383129242,
            5.641801314735767,
            5.793317498760261,
            5.973413319014777,
            6.315459835268713,
            6.580945461740639,
            6.593982401915171,
            6.59398251310752,
            6.972914595206357,
            6.972914665306207,
            7.433336056712932,
            7.433336171789184,
            7.438094597037758,
            7.766308315380744,
            7.766308488461783,
            8.239849158192975,
            8.606858809865262,
            8.863779667919893,
            8.863779971221813,
            9.012190555089395,
            9.01219096187195,
            9.163295238050901,
            9.163295251386723,
            9.566083013436675,
            9.643841289071343,
            9.643841453798322,
            9.660927006626352,
            9.660927588475573,
            9.900514527758961,
            10.017498455449966,
            10.017499138574946,
            10.511435716894592,
            10.629769031322876,
            10.704554143915857,
            10.704554691869832,
            10.710536027356977,
            10.710536495139594,
            11.042502542977639,
            11.338894540229289,
            11.338894885095538,
            11.380941809593189,
            11.380942249820606,
            11.432227980726228,
            11.573726165388488,
            11.893220496918321,
            11.893221031206178,
            12.169382414538548,
            12.268366823568831,
            12.268367092504525,
            12.281636564205295,
            12.281636972147883,
            12.696250829868596,
            12.696251031991366,
            12.971520037326046,
            13.50057519406772,
            13.824615433843205,
            14.455241779426766,
            14.455242126027862,
            14.480204180013908,
            14.480204517578384,
            15.109549689581842,
            17.03458080643985,
            17.03458080643985,
            17.04799720099161,
            17.047997272671623,
            17.918045985881577,
            17.91804653147707,
            17.99352237939232,
            17.99352292269923,
            18.121832237429686,
            18.863577461492092,
            18.97073138710663,
            19.44277435831778,
            19.442774735424656,
            19.470082168184938,
            19.470082607525896,
            20.534077414879736,
            21.71258932843511,
            23.21474506532536,
            23.28511758423595,
            23.318318991465404
        ]
    },
    "born_effective_charge": {
        "avg_abs_trace": 2.5676729999999997,
        "tensors": [
            [
                [
                    2.32879,
                    0.04861,
                    -6e-05
                ],
                [
                    -0.04859,
                    2.32879,
                    -0.0
                ],
                [
                    0.0,
                    0.0,
                    2.69457
                ]
            ],
            [
                [
                    2.32879,
                    -0.04861,
                    6e-05
                ],
                [
                    0.0486,
                    2.3288,
                    -0.0
                ],
                [
                    0.0,
                    0.0,
                    2.69457
                ]
            ],
            [
                [
                    2.32881,
                    0.04858,
                    -6e-05
                ],
                [
                    -0.0486,
                    2.3288,
                    -0.0
                ],
                [
                    0.0,
                    0.0,
                    2.69457
                ]
            ],
            [
                [
                    2.32881,
                    -0.04858,
                    6e-05
                ],
                [
                    0.04859,
                    2.32879,
                    -0.0
                ],
                [
                    0.0,
                    0.0,
                    2.69457
                ]
            ],
            [
                [
                    2.31552,
                    0.03873,
                    -1e-05
                ],
                [
                    -0.03872,
                    2.31551,
                    0.0
                ],
                [
                    0.0,
                    0.0,
                    1.55304
                ]
            ],
            [
                [
                    2.31552,
                    -0.03873,
                    1e-05
                ],
                [
                    0.03873,
                    2.31552,
                    -0.0
                ],
                [
                    0.0,
                    0.0,
                    1.55305
                ]
            ],
            [
                [
                    2.31552,
                    0.03871,
                    -1e-05
                ],
                [
                    -0.03873,
                    2.31552,
                    -0.0
                ],
                [
                    0.0,
                    0.0,
                    1.55305
                ]
            ],
            [
                [
                    2.31552,
                    -0.03871,
                    1e-05
                ],
                [
                    0.03872,
                    2.31551,
                    0.0
                ],
                [
                    0.0,
                    0.0,
                    1.55304
                ]
            ],
            [
                [
                    5.06305,
                    -0.06116,
                    4e-05
                ],
                [
                    0.06114,
                    5.06297,
                    1e-05
                ],
                [
                    0.0,
                    0.0,
                    5.22406
                ]
            ],
            [
                [
                    5.06305,
                    0.06116,
                    -4e-05
                ],
                [
                    -0.06129,
                    5.06299,
                    1e-05
                ],
                [
                    0.0,
                    0.0,
                    5.22407
                ]
            ],
            [
                [
                    5.063,
                    -0.06123,
                    5e-05
                ],
                [
                    0.06129,
                    5.06299,
                    1e-05
                ],
                [
                    0.0,
                    0.0,
                    5.22407
                ]
            ],
            [
                [
                    5.063,
                    0.06123,
                    -5e-05
                ],
                [
                    -0.06114,
                    5.06297,
                    1e-05
                ],
                [
                    0.0,
                    0.0,
                    5.22406
                ]
            ],
            [
                [
                    -1.6847,
                    -0.5367,
                    0.12347
                ],
                [
                    -0.5366,
                    -2.30427,
                    -0.07136
                ],
                [
                    0.1413,
                    -0.08161,
                    -2.34203
                ]
            ],
            [
                [
                    -1.6847,
                    0.5367,
                    -0.12347
                ],
                [
                    0.53664,
                    -2.30437,
                    -0.07124
                ],
                [
                    -0.14133,
                    -0.08156,
                    -2.34203
                ]
            ],
            [
                [
                    -2.61424,
                    0.0,
                    0.0
                ],
                [
                    0.00011,
                    -1.3749,
                    0.1426
                ],
                [
                    3e-05,
                    0.16317,
                    -2.34203
                ]
            ],
            [
                [
                    -1.68475,
                    -0.53651,
                    0.12355
                ],
                [
                    -0.53664,
                    -2.30437,
                    -0.07124
                ],
                [
                    0.14133,
                    -0.08156,
                    -2.34203
                ]
            ],
            [
                [
                    -1.68475,
                    0.53651,
                    -0.12355
                ],
                [
                    0.5366,
                    -2.30427,
                    -0.07136
                ],
                [
                    -0.1413,
                    -0.08161,
                    -2.34203
                ]
            ],
            [
                [
                    -2.61393,
                    0.0,
                    0.0
                ],
                [
                    -0.00011,
                    -1.3749,
                    0.1426
                ],
                [
                    -3e-05,
                    0.16317,
                    -2.34203
                ]
            ],
            [
                [
                    -1.64946,
                    -0.63724,
                    -0.38101
                ],
                [
                    -0.5921,
                    -2.8276,
                    -0.64043
                ],
                [
                    -0.49355,
                    -0.73663,
                    -1.98618
                ]
            ],
            [
                [
                    -3.06537,
                    -0.22543,
                    0.74512
                ],
                [
                    -0.18026,
                    -1.41156,
                    -0.00969
                ],
                [
                    0.88472,
                    -0.05911,
                    -1.98618
                ]
            ],
            [
                [
                    -2.00077,
                    0.7949,
                    -0.36418
                ],
                [
                    0.84014,
                    -2.47622,
                    0.65011
                ],
                [
                    -0.39117,
                    0.79574,
                    -1.98618
                ]
            ],
            [
                [
                    -1.64946,
                    0.63724,
                    0.38101
                ],
                [
                    0.59217,
                    -2.82766,
                    -0.64061
                ],
                [
                    0.4936,
                    -0.73677,
                    -1.98625
                ]
            ],
            [
                [
                    -3.06537,
                    0.22543,
                    -0.74512
                ],
                [
                    0.18024,
                    -1.41163,
                    -0.00972
                ],
                [
                    -0.88486,
                    -0.05909,
                    -1.98625
                ]
            ],
            [
                [
                    -2.00077,
                    -0.7949,
                    0.36418
                ],
                [
                    -0.8401,
                    -2.47638,
                    0.65032
                ],
                [
                    0.39126,
                    0.79585,
                    -1.98625
                ]
            ],
            [
                [
                    -2.0007,
                    -0.79503,
                    0.36429
                ],
                [
                    -0.84014,
                    -2.47622,
                    0.65011
                ],
                [
                    0.39117,
                    0.79574,
                    -1.98618
                ]
            ],
            [
                [
                    -3.0655,
                    0.22545,
                    -0.74527
                ],
                [
                    0.18026,
                    -1.41156,
                    -0.00969
                ],
                [
                    -0.88472,
                    -0.05911,
                    -1.98618
                ]
            ],
            [
                [
                    -1.64935,
                    0.63734,
                    0.38104
                ],
                [
                    0.5921,
                    -2.8276,
                    -0.64043
                ],
                [
                    0.49355,
                    -0.73663,
                    -1.98618
                ]
            ],
            [
                [
                    -2.0007,
                    0.79503,
                    -0.36429
                ],
                [
                    0.8401,
                    -2.47638,
                    0.65032
                ],
                [
                    -0.39126,
                    0.79585,
                    -1.98625
                ]
            ],
            [
                [
                    -3.0655,
                    -0.22545,
                    0.74527
                ],
                [
                    -0.18024,
                    -1.41163,
                    -0.00972
                ],
                [
                    0.88486,
                    -0.05909,
                    -1.98625
                ]
            ],
            [
                [
                    -1.64935,
                    -0.63734,
                    -0.38104
                ],
                [
                    -0.59217,
                    -2.82766,
                    -0.64061
                ],
                [
                    -0.4936,
                    -0.73677,
                    -1.98625
                ]
            ]
        ]
    },
    "band_gap": 4.4437999999999995,
    "is_direct": false,
    "formula": "Mg4Ta2O9"
}