{
    "mp_id": "mp-13863",
    "nelements": 3,
    "nsites": 20,
    "elements": [
        "Ba",
        "Ge",
        "O"
    ],
    "structure": {
        "@module": "pymatgen.core.structure",
        "@class": "Structure",
        "charge": null,
        "lattice": {
            "matrix": [
                [
                    4.57671677,
                    0.0,
                    0.0
                ],
                [
                    0.0,
                    5.76591052,
                    0.0
                ],
                [
                    0.0,
                    0.0,
                    12.96358789
                ]
            ],
            "a": 4.57671677,
            "b": 5.76591052,
            "c": 12.96358789,
            "alpha": 90.0,
            "beta": 90.0,
            "gamma": 90.0,
            "volume": 342.0953348624769
        },
        "sites": [
            {
                "species": [
                    {
                        "element": "Ba",
                        "occu": 1
                    }
                ],
                "abc": [
                    0.27447306,
                    0.82160573,
                    0.86138467
                ],
                "xyz": [
                    1.2561854566152162,
                    4.73730512189928,
                    11.166635876643646
                ],
                "label": "Ba",
                "properties": {}
            },
            {
                "species": [
                    {
                        "element": "Ba",
                        "occu": 1
                    }
                ],
                "abc": [
                    0.77447306,
                    0.67839427,
                    0.13861533
                ],
                "xyz": [
                    3.544543841615216,
                    3.9115606581007203,
                    1.7969520133563537
                ],
                "label": "Ba",
                "properties": {}
            },
            {
                "species": [
                    {
                        "element": "Ba",
                        "occu": 1
                    }
                ],
                "abc": [
                    0.72552694,
                    0.32160573,
                    0.63861533
                ],
                "xyz": [
                    3.320531313384784,
                    1.8543498618992795,
                    8.278745958356353
                ],
                "label": "Ba",
                "properties": {}
            },
            {
                "species": [
                    {
                        "element": "Ba",
                        "occu": 1
                    }
                ],
                "abc": [
                    0.22552694,
                    0.17839427,
                    0.36138467
                ],
                "xyz": [
                    1.0321729283847838,
                    1.0286053981007204,
                    4.684841931643646
                ],
                "label": "Ba",
                "properties": {}
            },
            {
                "species": [
                    {
                        "element": "Ge",
                        "occu": 1
                    }
                ],
                "abc": [
                    0.82249472,
                    0.30953367,
                    0.92312741
                ],
                "xyz": [
                    3.7643253782604544,
                    1.7847434441472083,
                    11.967043313203064
                ],
                "label": "Ge",
                "properties": {}
            },
            {
                "species": [
                    {
                        "element": "Ge",
                        "occu": 1
                    }
                ],
                "abc": [
                    0.32249472,
                    0.19046633,
                    0.07687259
                ],
                "xyz": [
                    1.4759669932604544,
                    1.0982118158527916,
                    0.9965445767969351
                ],
                "label": "Ge",
                "properties": {}
            },
            {
                "species": [
                    {
                        "element": "Ge",
                        "occu": 1
                    }
                ],
                "abc": [
                    0.17750528,
                    0.80953367,
                    0.57687259
                ],
                "xyz": [
                    0.8123913917395456,
                    4.667698704147209,
                    7.478338521796935
                ],
                "label": "Ge",
                "properties": {}
            },
            {
                "species": [
                    {
                        "element": "Ge",
                        "occu": 1
                    }
                ],
                "abc": [
                    0.67750528,
                    0.69046633,
                    0.42312741
                ],
                "xyz": [
                    3.1007497767395455,
                    3.9811670758527917,
                    5.485249368203064
                ],
                "label": "Ge",
                "properties": {}
            },
            {
                "species": [
                    {
                        "element": "O",
                        "occu": 1
                    }
                ],
                "abc": [
                    0.76346351,
                    0.60972001,
                    0.91368459
                ],
                "xyz": [
                    3.4941562495000626,
                    3.515591019913505,
                    11.844630486203615
                ],
                "label": "O",
                "properties": {}
            },
            {
                "species": [
                    {
                        "element": "O",
                        "occu": 1
                    }
                ],
                "abc": [
                    0.26346351,
                    0.89027999,
                    0.08631541
                ],
                "xyz": [
                    1.2057978645000627,
                    5.133274760086495,
                    1.1189574037963848
                ],
                "label": "O",
                "properties": {}
            },
            {
                "species": [
                    {
                        "element": "O",
                        "occu": 1
                    }
                ],
                "abc": [
                    0.23653649,
                    0.10972001,
                    0.58631541
                ],
                "xyz": [
                    1.0825605204999373,
                    0.6326357599135053,
                    7.6007513487963845
                ],
                "label": "O",
                "properties": {}
            },
            {
                "species": [
                    {
                        "element": "O",
                        "occu": 1
                    }
                ],
                "abc": [
                    0.73653649,
                    0.39027999,
                    0.41368459
                ],
                "xyz": [
                    3.3709189054999373,
                    2.250319500086495,
                    5.362836541203615
                ],
                "label": "O",
                "properties": {}
            },
            {
                "species": [
                    {
                        "element": "O",
                        "occu": 1
                    }
                ],
                "abc": [
                    0.7549722,
                    0.11568795,
                    0.82173874
                ],
                "xyz": [
                    3.455293928623794,
                    0.667046367942234,
                    10.652682378607858
                ],
                "label": "O",
                "properties": {}
            },
            {
                "species": [
                    {
                        "element": "O",
                        "occu": 1
                    }
                ],
                "abc": [
                    0.2549722,
                    0.38431205,
                    0.17826126
                ],
                "xyz": [
                    1.1669355436237938,
                    2.215908892057766,
                    2.3109055113921415
                ],
                "label": "O",
                "properties": {}
            },
            {
                "species": [
                    {
                        "element": "O",
                        "occu": 1
                    }
                ],
                "abc": [
                    0.2450278,
                    0.61568795,
                    0.67826126
                ],
                "xyz": [
                    1.121422841376206,
                    3.550001627942234,
                    8.79269945639214
                ],
                "label": "O",
                "properties": {}
            },
            {
                "species": [
                    {
                        "element": "O",
                        "occu": 1
                    }
                ],
                "abc": [
                    0.7450278,
                    0.88431205,
                    0.32173874
                ],
                "xyz": [
                    3.409781226376206,
                    5.098864152057766,
                    4.170888433607859
                ],
                "label": "O",
                "properties": {}
            },
            {
                "species": [
                    {
                        "element": "O",
                        "occu": 1
                    }
                ],
                "abc": [
                    0.2799159,
                    0.71298494,
                    0.4468968
                ],
                "xyz": [
                    1.281095793719643,
                    4.111007366147569,
                    5.793385944559751
                ],
                "label": "O",
                "properties": {}
            },
            {
                "species": [
                    {
                        "element": "O",
                        "occu": 1
                    }
                ],
                "abc": [
                    0.7799159,
                    0.78701506,
                    0.5531032
                ],
                "xyz": [
                    3.569454178719643,
                    4.537858413852431,
                    7.170201945440248
                ],
                "label": "O",
                "properties": {}
            },
            {
                "species": [
                    {
                        "element": "O",
                        "occu": 1
                    }
                ],
                "abc": [
                    0.7200841,
                    0.21298494,
                    0.0531032
                ],
                "xyz": [
                    3.295620976280357,
                    1.2280521061475689,
                    0.688408000440248
                ],
                "label": "O",
                "properties": {}
            },
            {
                "species": [
                    {
                        "element": "O",
                        "occu": 1
                    }
                ],
                "abc": [
                    0.2200841,
                    0.28701506,
                    0.9468968
                ],
                "xyz": [
                    1.007262591280357,
                    1.6549031538524313,
                    12.275179889559752
                ],
                "label": "O",
                "properties": {}
            }
        ]
    },
    "spacegroup": {
        "source": "spglib",
        "symbol": "P2_12_12_1",
        "number": 19,
        "point_group": "222",
        "crystal_system": "orthorhombic",
        "hall": "P 2ac 2ab"
    },
    "dielectric": {
        "epsilon_ionic": [
            [
                8.04146264,
                -1e-08,
                1e-08
            ],
            [
                -1e-08,
                7.02270042,
                -0.0
            ],
            [
                1e-08,
                -0.0,
                8.07022858
            ]
        ],
        "epsilon_ionic_avg": 7.71146388,
        "epsilon_ionic_eig": [
            8.041462639999994,
            8.070228580000004,
            7.022700420000002
        ],
        "epsilon_electronic": [
            [
                3.39796423,
                0.0,
                0.0
            ],
            [
                0.0,
                3.36274899,
                0.0
            ],
            [
                0.0,
                0.0,
                3.3053871
            ]
        ],
        "epsilon_electronic_avg": 3.3553667733333334,
        "epsilon_electronic_eig": [
            3.39796423,
            3.36274899,
            3.3053871
        ]
    },
    "phonon": {
        "lowest_freq": -0.059724094754910036,
        "frequency": [
            -0.059724094754910036,
            -0.042421159651060254,
            -0.02053294905792532,
            1.066773454701934,
            1.1378508831317484,
            1.8874043808842489,
            2.0963775454172646,
            2.1549473691452636,
            2.237847503117779,
            2.415493038426914,
            2.721854280358513,
            2.8903940672000568,
            3.0470210936420865,
            3.1719009092839947,
            3.223600109882661,
            3.3231808463465704,
            3.692851705516196,
            3.872729650550273,
            4.030752578257432,
            4.1593467405391795,
            5.1653421074750066,
            5.429616024223518,
            5.440896817698946,
            5.631958222260014,
            5.813054524690465,
            5.957139544225783,
            6.14189139078459,
            6.151733895192491,
            7.720863825679651,
            7.870369989762096,
            7.883933051887858,
            7.914890181022727,
            8.031744367152593,
            8.222446257052463,
            8.596328351705749,
            9.32605733434747,
            9.377980471134089,
            9.470082201398919,
            9.534405638517883,
            9.554504695802658,
            9.616332386221346,
            10.735692812829132,
            10.910633440866237,
            11.118589608668287,
            14.217719202890263,
            14.301263495140834,
            16.980870467696636,
            17.35636766475159,
            20.002614598681518,
            20.032011993413395,
            21.3767571853119,
            22.258588332493208,
            22.7830693466585,
            22.838796083808187,
            22.906751489580856,
            23.04201482361198,
            23.086608979183517,
            23.13262840079951,
            23.408610976230268,
            23.507913178369595
        ]
    },
    "born_effective_charge": {
        "avg_abs_trace": 2.3004100000000003,
        "tensors": [
            [
                [
                    2.76346,
                    0.00837,
                    -0.01376
                ],
                [
                    0.00107,
                    2.62461,
                    0.0441
                ],
                [
                    0.0349,
                    0.22278,
                    2.61456
                ]
            ],
            [
                [
                    2.76346,
                    -0.00837,
                    0.01376
                ],
                [
                    -0.0011,
                    2.62479,
                    0.04379
                ],
                [
                    -0.03491,
                    0.22279,
                    2.61443
                ]
            ],
            [
                [
                    2.76346,
                    -0.00846,
                    -0.01381
                ],
                [
                    -0.00107,
                    2.62461,
                    -0.0441
                ],
                [
                    0.03491,
                    -0.22279,
                    2.61443
                ]
            ],
            [
                [
                    2.76346,
                    0.00846,
                    0.01381
                ],
                [
                    0.0011,
                    2.62479,
                    -0.04379
                ],
                [
                    -0.0349,
                    -0.22278,
                    2.61456
                ]
            ],
            [
                [
                    3.33064,
                    0.01954,
                    -0.23428
                ],
                [
                    -0.20117,
                    3.00101,
                    0.07358
                ],
                [
                    0.35051,
                    0.19083,
                    2.91875
                ]
            ],
            [
                [
                    3.33064,
                    -0.01954,
                    0.23428
                ],
                [
                    0.20123,
                    3.00105,
                    0.07357
                ],
                [
                    -0.35052,
                    0.19082,
                    2.91878
                ]
            ],
            [
                [
                    3.33061,
                    -0.01942,
                    -0.23415
                ],
                [
                    0.20117,
                    3.00101,
                    -0.07358
                ],
                [
                    0.35052,
                    -0.19082,
                    2.91878
                ]
            ],
            [
                [
                    3.33061,
                    0.01942,
                    0.23415
                ],
                [
                    -0.20123,
                    3.00105,
                    -0.07357
                ],
                [
                    -0.35051,
                    -0.19083,
                    2.91875
                ]
            ],
            [
                [
                    -1.90461,
                    0.14119,
                    0.01943
                ],
                [
                    0.16836,
                    -2.31104,
                    0.08499
                ],
                [
                    -0.06708,
                    0.15782,
                    -1.51469
                ]
            ],
            [
                [
                    -1.90461,
                    -0.14119,
                    -0.01943
                ],
                [
                    -0.16842,
                    -2.31127,
                    0.08532
                ],
                [
                    0.06707,
                    0.15774,
                    -1.5147
                ]
            ],
            [
                [
                    -1.90462,
                    -0.14117,
                    0.0194
                ],
                [
                    -0.16836,
                    -2.31104,
                    -0.08499
                ],
                [
                    -0.06707,
                    -0.15774,
                    -1.5147
                ]
            ],
            [
                [
                    -1.90462,
                    0.14117,
                    -0.0194
                ],
                [
                    0.16842,
                    -2.31127,
                    -0.08532
                ],
                [
                    0.06708,
                    -0.15782,
                    -1.51469
                ]
            ],
            [
                [
                    -1.64264,
                    -0.10881,
                    -0.08193
                ],
                [
                    -0.08302,
                    -1.82223,
                    -0.14962
                ],
                [
                    -0.16595,
                    -0.16517,
                    -2.23329
                ]
            ],
            [
                [
                    -1.64264,
                    0.10881,
                    0.08193
                ],
                [
                    0.08296,
                    -1.8221,
                    -0.14964
                ],
                [
                    0.16589,
                    -0.16527,
                    -2.23324
                ]
            ],
            [
                [
                    -1.64256,
                    0.109,
                    -0.08184
                ],
                [
                    0.08302,
                    -1.82223,
                    0.14962
                ],
                [
                    -0.16589,
                    0.16527,
                    -2.23324
                ]
            ],
            [
                [
                    -1.64256,
                    -0.109,
                    0.08184
                ],
                [
                    -0.08296,
                    -1.8221,
                    0.14964
                ],
                [
                    0.16595,
                    0.16517,
                    -2.23329
                ]
            ],
            [
                [
                    -2.54695,
                    0.25817,
                    0.58713
                ],
                [
                    0.24097,
                    -1.49238,
                    -0.25264
                ],
                [
                    0.41141,
                    -0.11105,
                    -1.7853
                ]
            ],
            [
                [
                    -2.54695,
                    -0.25817,
                    -0.58713
                ],
                [
                    -0.24096,
                    -1.49244,
                    -0.25271
                ],
                [
                    -0.41137,
                    -0.11105,
                    -1.7853
                ]
            ],
            [
                [
                    -2.54679,
                    -0.25818,
                    0.58663
                ],
                [
                    -0.24097,
                    -1.49238,
                    0.25264
                ],
                [
                    0.41137,
                    0.11105,
                    -1.7853
                ]
            ],
            [
                [
                    -2.54679,
                    0.25818,
                    -0.58663
                ],
                [
                    0.24096,
                    -1.49244,
                    0.25271
                ],
                [
                    -0.41141,
                    0.11105,
                    -1.7853
                ]
            ]
        ]
    },
    "band_gap": 3.4093,
    "is_direct": false,
    "formula": "BaGeO3"
}