{
    "mp_id": "mp-1196865",
    "nelements": 3,
    "nsites": 34,
    "elements": [
        "Cs",
        "In",
        "O"
    ],
    "structure": {
        "@module": "pymatgen.core.structure",
        "@class": "Structure",
        "charge": null,
        "lattice": {
            "matrix": [
                [
                    7.3940395,
                    0.0,
                    -0.00174873
                ],
                [
                    0.0,
                    18.87751543,
                    0.0
                ],
                [
                    -3.45239737,
                    0.0,
                    6.34411522
                ]
            ],
            "a": 7.394039706792009,
            "b": 18.87751543,
            "c": 7.222661941764862,
            "alpha": 90.0,
            "beta": 118.56809445313104,
            "gamma": 90.0,
            "volume": 885.4045782070739
        },
        "sites": [
            {
                "species": [
                    {
                        "element": "Cs",
                        "occu": 1
                    }
                ],
                "abc": [
                    0.23331095,
                    0.49622733,
                    0.96512256
                ],
                "xyz": [
                    -1.606876207789142,
                    9.367539078862702,
                    6.122440724203769
                ],
                "label": "Cs",
                "properties": {}
            },
            {
                "species": [
                    {
                        "element": "Cs",
                        "occu": 1
                    }
                ],
                "abc": [
                    0.76668905,
                    0.99622733,
                    0.53487744
                ],
                "xyz": [
                    3.8223196527891417,
                    18.8062967938627,
                    3.3919833757962303
                ],
                "label": "Cs",
                "properties": {}
            },
            {
                "species": [
                    {
                        "element": "Cs",
                        "occu": 1
                    }
                ],
                "abc": [
                    0.76668905,
                    0.50377267,
                    0.03487744
                ],
                "xyz": [
                    5.548518337789142,
                    9.509976351137299,
                    0.21992576579623033
                ],
                "label": "Cs",
                "properties": {}
            },
            {
                "species": [
                    {
                        "element": "Cs",
                        "occu": 1
                    }
                ],
                "abc": [
                    0.23331095,
                    0.00377267,
                    0.46512256
                ],
                "xyz": [
                    0.11932247721085765,
                    0.07121863613729809,
                    2.95038311420377
                ],
                "label": "Cs",
                "properties": {}
            },
            {
                "species": [
                    {
                        "element": "Cs",
                        "occu": 1
                    }
                ],
                "abc": [
                    0.23998576,
                    0.29362952,
                    0.95537986
                ],
                "xyz": [
                    -1.523886727137448,
                    5.542995794503493,
                    6.060620240409384
                ],
                "label": "Cs",
                "properties": {}
            },
            {
                "species": [
                    {
                        "element": "Cs",
                        "occu": 1
                    }
                ],
                "abc": [
                    0.76001424,
                    0.79362952,
                    0.54462014
                ],
                "xyz": [
                    3.739330172137448,
                    14.981753509503493,
                    3.4538038595906158
                ],
                "label": "Cs",
                "properties": {}
            },
            {
                "species": [
                    {
                        "element": "Cs",
                        "occu": 1
                    }
                ],
                "abc": [
                    0.76001424,
                    0.70637048,
                    0.04462014
                ],
                "xyz": [
                    5.465528857137448,
                    13.334519635496505,
                    0.2817462495906156
                ],
                "label": "Cs",
                "properties": {}
            },
            {
                "species": [
                    {
                        "element": "Cs",
                        "occu": 1
                    }
                ],
                "abc": [
                    0.23998576,
                    0.20637048,
                    0.45537986
                ],
                "xyz": [
                    0.20231195786255163,
                    3.895761920496506,
                    2.8885626304093845
                ],
                "label": "Cs",
                "properties": {}
            },
            {
                "species": [
                    {
                        "element": "Cs",
                        "occu": 1
                    }
                ],
                "abc": [
                    0.35888732,
                    0.91500648,
                    0.00742461
                ],
                "xyz": [
                    2.627994316091864,
                    17.273048944749984,
                    0.046474984280460596
                ],
                "label": "Cs",
                "properties": {}
            },
            {
                "species": [
                    {
                        "element": "Cs",
                        "occu": 1
                    }
                ],
                "abc": [
                    0.64111268,
                    0.41500648,
                    0.49257539
                ],
                "xyz": [
                    3.039846498908135,
                    7.8342912297499865,
                    3.1238338957195393
                ],
                "label": "Cs",
                "properties": {}
            },
            {
                "species": [
                    {
                        "element": "Cs",
                        "occu": 1
                    }
                ],
                "abc": [
                    0.64111268,
                    0.08499352,
                    0.99257539
                ],
                "xyz": [
                    1.3136478139081356,
                    1.6044664852500137,
                    6.295891505719539
                ],
                "label": "Cs",
                "properties": {}
            },
            {
                "species": [
                    {
                        "element": "Cs",
                        "occu": 1
                    }
                ],
                "abc": [
                    0.35888732,
                    0.58499352,
                    0.50742461
                ],
                "xyz": [
                    0.901795631091864,
                    11.043224200250014,
                    3.218532594280461
                ],
                "label": "Cs",
                "properties": {}
            },
            {
                "species": [
                    {
                        "element": "Cs",
                        "occu": 1
                    }
                ],
                "abc": [
                    0.78513384,
                    0.19197766,
                    0.54926553
                ],
                "xyz": [
                    3.9090277545430236,
                    3.6240612388652935,
                    3.4832308215943435
                ],
                "label": "Cs",
                "properties": {}
            },
            {
                "species": [
                    {
                        "element": "Cs",
                        "occu": 1
                    }
                ],
                "abc": [
                    0.21486616,
                    0.69197766,
                    0.95073447
                ],
                "xyz": [
                    -1.6935843095430239,
                    13.062818953865294,
                    6.031193278405656
                ],
                "label": "Cs",
                "properties": {}
            },
            {
                "species": [
                    {
                        "element": "Cs",
                        "occu": 1
                    }
                ],
                "abc": [
                    0.21486616,
                    0.80802234,
                    0.45073447
                ],
                "xyz": [
                    0.0326143754569761,
                    15.253454191134704,
                    2.859135668405657
                ],
                "label": "Cs",
                "properties": {}
            },
            {
                "species": [
                    {
                        "element": "Cs",
                        "occu": 1
                    }
                ],
                "abc": [
                    0.78513384,
                    0.30802234,
                    0.04926553
                ],
                "xyz": [
                    5.635226439543024,
                    5.814696476134706,
                    0.3111732115943434
                ],
                "label": "Cs",
                "properties": {}
            },
            {
                "species": [
                    {
                        "element": "In",
                        "occu": 1
                    }
                ],
                "abc": [
                    0.14960905,
                    0.4014291,
                    0.50086174
                ],
                "xyz": [
                    -0.6229585286521491,
                    7.577984029301012,
                    3.1772629620156767
                ],
                "label": "In",
                "properties": {}
            },
            {
                "species": [
                    {
                        "element": "In",
                        "occu": 1
                    }
                ],
                "abc": [
                    0.85039095,
                    0.9014291,
                    0.99913826
                ],
                "xyz": [
                    2.8384019736521484,
                    17.01674174430101,
                    6.337161137984324
                ],
                "label": "In",
                "properties": {}
            },
            {
                "species": [
                    {
                        "element": "In",
                        "occu": 1
                    }
                ],
                "abc": [
                    0.85039095,
                    0.5985709,
                    0.49913826
                ],
                "xyz": [
                    4.564600658652148,
                    11.299531400698987,
                    3.1651035279843236
                ],
                "label": "In",
                "properties": {}
            },
            {
                "species": [
                    {
                        "element": "In",
                        "occu": 1
                    }
                ],
                "abc": [
                    0.14960905,
                    0.0985709,
                    0.00086174
                ],
                "xyz": [
                    1.103240156347851,
                    1.860773685698987,
                    0.0052053520156763
                ],
                "label": "In",
                "properties": {}
            },
            {
                "species": [
                    {
                        "element": "O",
                        "occu": 1
                    }
                ],
                "abc": [
                    0.0,
                    0.5,
                    0.5
                ],
                "xyz": [
                    -1.726198685,
                    9.438757715,
                    3.17205761
                ],
                "label": "O",
                "properties": {}
            },
            {
                "species": [
                    {
                        "element": "O",
                        "occu": 1
                    }
                ],
                "abc": [
                    0.0,
                    0.0,
                    0.0
                ],
                "xyz": [
                    0.0,
                    0.0,
                    0.0
                ],
                "label": "O",
                "properties": {}
            },
            {
                "species": [
                    {
                        "element": "O",
                        "occu": 1
                    }
                ],
                "abc": [
                    0.04375509,
                    0.8205358,
                    0.98735434
                ],
                "xyz": [
                    -3.085212662888031,
                    15.489677225367394,
                    6.263813180088519
                ],
                "label": "O",
                "properties": {}
            },
            {
                "species": [
                    {
                        "element": "O",
                        "occu": 1
                    }
                ],
                "abc": [
                    0.95624491,
                    0.3205358,
                    0.51264566
                ],
                "xyz": [
                    5.30065610788803,
                    6.050919510367393,
                    3.2506109199114808
                ],
                "label": "O",
                "properties": {}
            },
            {
                "species": [
                    {
                        "element": "O",
                        "occu": 1
                    }
                ],
                "abc": [
                    0.95624491,
                    0.1794642,
                    0.01264566
                ],
                "xyz": [
                    7.02685479288803,
                    3.3878382046326054,
                    0.07855330991148089
                ],
                "label": "O",
                "properties": {}
            },
            {
                "species": [
                    {
                        "element": "O",
                        "occu": 1
                    }
                ],
                "abc": [
                    0.04375509,
                    0.6794642,
                    0.48735434
                ],
                "xyz": [
                    -1.3590139778880306,
                    12.826595919632604,
                    3.091755570088519
                ],
                "label": "O",
                "properties": {}
            },
            {
                "species": [
                    {
                        "element": "O",
                        "occu": 1
                    }
                ],
                "abc": [
                    0.16099023,
                    0.10769455,
                    0.71591953
                ],
                "xyz": [
                    -1.2812705827695512,
                    2.0330055293519065,
                    4.541594458123339
                ],
                "label": "O",
                "properties": {}
            },
            {
                "species": [
                    {
                        "element": "O",
                        "occu": 1
                    }
                ],
                "abc": [
                    0.83900977,
                    0.60769455,
                    0.78408047
                ],
                "xyz": [
                    3.496714027769551,
                    11.471763244351905,
                    4.972829641876661
                ],
                "label": "O",
                "properties": {}
            },
            {
                "species": [
                    {
                        "element": "O",
                        "occu": 1
                    }
                ],
                "abc": [
                    0.83900977,
                    0.89230545,
                    0.28408047
                ],
                "xyz": [
                    5.222912712769551,
                    16.844509900648095,
                    1.8007720318766611
                ],
                "label": "O",
                "properties": {}
            },
            {
                "species": [
                    {
                        "element": "O",
                        "occu": 1
                    }
                ],
                "abc": [
                    0.16099023,
                    0.39230545,
                    0.21591953
                ],
                "xyz": [
                    0.4449281022304489,
                    7.405752185648093,
                    1.3695368481233388
                ],
                "label": "O",
                "properties": {}
            },
            {
                "species": [
                    {
                        "element": "O",
                        "occu": 1
                    }
                ],
                "abc": [
                    0.43850223,
                    0.40162701,
                    0.77345864
                ],
                "xyz": [
                    0.5720162349183084,
                    7.581720078379764,
                    4.906143908059833
                ],
                "label": "O",
                "properties": {}
            },
            {
                "species": [
                    {
                        "element": "O",
                        "occu": 1
                    }
                ],
                "abc": [
                    0.56149777,
                    0.90162701,
                    0.72654136
                ],
                "xyz": [
                    1.6434272100816916,
                    17.020477793379765,
                    4.6082801919401675
                ],
                "label": "O",
                "properties": {}
            },
            {
                "species": [
                    {
                        "element": "O",
                        "occu": 1
                    }
                ],
                "abc": [
                    0.56149777,
                    0.59837299,
                    0.22654136
                ],
                "xyz": [
                    3.3696258950816915,
                    11.295795351620235,
                    1.436222581940167
                ],
                "label": "O",
                "properties": {}
            },
            {
                "species": [
                    {
                        "element": "O",
                        "occu": 1
                    }
                ],
                "abc": [
                    0.43850223,
                    0.09837299,
                    0.27345864
                ],
                "xyz": [
                    2.2982149199183084,
                    1.8570376366202355,
                    1.7340862980598326
                ],
                "label": "O",
                "properties": {}
            }
        ]
    },
    "spacegroup": {
        "source": "spglib",
        "symbol": "P2_1/c",
        "number": 14,
        "point_group": "2/m",
        "crystal_system": "monoclinic",
        "hall": "-P 2ybc"
    },
    "dielectric": {
        "epsilon_ionic": [
            [
                8.11507194,
                -2e-08,
                -0.27501337
            ],
            [
                -2e-08,
                8.53568313,
                -1e-08
            ],
            [
                -0.27501337,
                -1e-08,
                6.65778779
            ]
        ],
        "epsilon_ionic_avg": 7.769514286666667,
        "epsilon_ionic_eig": [
            6.607615620690703,
            8.165244109309297,
            8.53568313
        ],
        "epsilon_electronic": [
            [
                3.72047936,
                0.0,
                0.00400094
            ],
            [
                0.0,
                3.71662276,
                0.0
            ],
            [
                0.0040015,
                0.0,
                3.79162052
            ]
        ],
        "epsilon_electronic_avg": 3.742907546666667,
        "epsilon_electronic_eig": [
            3.7202550252362183,
            3.7918448547637817,
            3.71662276
        ]
    },
    "phonon": {
        "lowest_freq": -0.13032285756721734,
        "frequency": [
            -0.13032285756721734,
            -0.09019797554856963,
            -0.05732053372514038,
            0.6470858155311594,
            0.7609430312925302,
            0.927329054714589,
            0.931231678384175,
            0.9423926623011811,
            1.040027937013482,
            1.0573577977136657,
            1.0771135172214823,
            1.2313533338399798,
            1.2807478744794167,
            1.3055217096001832,
            1.4128610663811303,
            1.4496575562428171,
            1.4830743962241488,
            1.5305707561566377,
            1.5490614208930151,
            1.5795830473958574,
            1.6309701459612682,
            1.6538573038095665,
            1.6976740851331973,
            1.712016135528304,
            1.7397752956961656,
            1.7499846195190556,
            1.8081674975172084,
            1.8343424353121476,
            1.906268492595907,
            1.9293276199402645,
            1.9732491823174652,
            2.0530750488153338,
            2.0858513895522357,
            2.086722955557965,
            2.1186113997814844,
            2.1573929571631565,
            2.2117754118958337,
            2.272266941678847,
            2.382125339994699,
            2.4172835885559865,
            2.539516451647597,
            2.568547484196315,
            2.5848265905710774,
            2.6028563336264483,
            2.6220767021087914,
            2.6896044400358683,
            2.7641608908513393,
            2.7690365282204366,
            2.771931321444379,
            2.778036120251807,
            3.2677247088973402,
            3.341356603576236,
            3.416599845931206,
            3.4291911888270254,
            3.534569014957112,
            3.6044322064388283,
            3.6549783316742603,
            3.6720404591661846,
            3.7963603529627306,
            3.8865492771806007,
            3.998545645210322,
            4.00076897260441,
            4.06752671801811,
            4.073660548892606,
            4.379531813782487,
            4.381395627800974,
            4.429278248407223,
            4.451588437818282,
            4.847355366100988,
            4.931944290619653,
            5.484313703565502,
            5.762036106400849,
            5.885361652633199,
            5.935862248309298,
            6.012021287205521,
            6.208948327627913,
            6.327498712440785,
            6.484842840037888,
            6.494906934378279,
            6.775999238443379,
            6.818571830655181,
            6.873849398583692,
            6.933891220679526,
            7.373299262908722,
            7.397710420468379,
            8.352329249960643,
            8.401930969784855,
            8.44804066403706,
            14.196811202364048,
            14.212880938918266,
            14.269147641426919,
            14.48831889741867,
            14.629558594516782,
            14.762468886113677,
            14.821192703600738,
            14.888877592760885,
            14.938261838845245,
            15.239653985036338,
            16.081495022876407,
            16.086423381350155,
            17.829418092144614,
            17.996438343020138
        ]
    },
    "born_effective_charge": {
        "avg_abs_trace": 1.8493025490196078,
        "tensors": [
            [
                [
                    1.15443,
                    0.11676,
                    -0.03606
                ],
                [
                    0.00156,
                    1.14487,
                    -0.02086
                ],
                [
                    -0.05414,
                    -0.00664,
                    1.45021
                ]
            ],
            [
                [
                    1.15436,
                    -0.11688,
                    -0.03615
                ],
                [
                    -0.00156,
                    1.14487,
                    0.02086
                ],
                [
                    -0.054,
                    0.00666,
                    1.45022
                ]
            ],
            [
                [
                    1.15436,
                    0.11688,
                    -0.03615
                ],
                [
                    0.0015,
                    1.14486,
                    -0.02084
                ],
                [
                    -0.054,
                    -0.00666,
                    1.45022
                ]
            ],
            [
                [
                    1.15443,
                    -0.11676,
                    -0.03606
                ],
                [
                    -0.0015,
                    1.14486,
                    0.02084
                ],
                [
                    -0.05414,
                    0.00664,
                    1.45021
                ]
            ],
            [
                [
                    1.09621,
                    0.12866,
                    -0.24233
                ],
                [
                    0.17601,
                    1.39811,
                    -0.03955
                ],
                [
                    -0.27217,
                    0.04131,
                    1.47754
                ]
            ],
            [
                [
                    1.09622,
                    -0.12846,
                    -0.24249
                ],
                [
                    -0.17601,
                    1.39811,
                    0.03955
                ],
                [
                    -0.27225,
                    -0.04151,
                    1.47757
                ]
            ],
            [
                [
                    1.09622,
                    0.12846,
                    -0.24249
                ],
                [
                    0.17601,
                    1.39812,
                    -0.03959
                ],
                [
                    -0.27225,
                    0.04151,
                    1.47757
                ]
            ],
            [
                [
                    1.09621,
                    -0.12866,
                    -0.24233
                ],
                [
                    -0.17601,
                    1.39812,
                    0.03959
                ],
                [
                    -0.27217,
                    -0.04131,
                    1.47754
                ]
            ],
            [
                [
                    1.89312,
                    0.0282,
                    -0.01116
                ],
                [
                    0.00971,
                    1.03656,
                    0.0158
                ],
                [
                    0.00355,
                    0.04556,
                    0.99453
                ]
            ],
            [
                [
                    1.89319,
                    -0.02814,
                    -0.01108
                ],
                [
                    -0.00971,
                    1.03656,
                    -0.0158
                ],
                [
                    0.00348,
                    -0.04563,
                    0.99413
                ]
            ],
            [
                [
                    1.89319,
                    0.02814,
                    -0.01108
                ],
                [
                    0.00975,
                    1.03655,
                    0.01588
                ],
                [
                    0.00348,
                    0.04563,
                    0.99413
                ]
            ],
            [
                [
                    1.89312,
                    -0.0282,
                    -0.01116
                ],
                [
                    -0.00975,
                    1.03655,
                    -0.01588
                ],
                [
                    0.00355,
                    -0.04556,
                    0.99453
                ]
            ],
            [
                [
                    1.19261,
                    0.24649,
                    0.22004
                ],
                [
                    0.18408,
                    1.41369,
                    -0.03445
                ],
                [
                    0.26801,
                    0.0165,
                    1.31787
                ]
            ],
            [
                [
                    1.19281,
                    -0.24642,
                    0.21995
                ],
                [
                    -0.18408,
                    1.41369,
                    0.03445
                ],
                [
                    0.26768,
                    -0.01671,
                    1.31798
                ]
            ],
            [
                [
                    1.19281,
                    0.24642,
                    0.21995
                ],
                [
                    0.18407,
                    1.4137,
                    -0.03445
                ],
                [
                    0.26768,
                    0.01671,
                    1.31798
                ]
            ],
            [
                [
                    1.19261,
                    -0.24649,
                    0.22004
                ],
                [
                    -0.18407,
                    1.4137,
                    0.03445
                ],
                [
                    0.26801,
                    -0.0165,
                    1.31787
                ]
            ],
            [
                [
                    2.59422,
                    -0.06223,
                    0.03111
                ],
                [
                    -0.09231,
                    2.68412,
                    0.11333
                ],
                [
                    -0.0431,
                    0.0229,
                    2.73046
                ]
            ],
            [
                [
                    2.59417,
                    0.06224,
                    0.03087
                ],
                [
                    0.09231,
                    2.68412,
                    -0.11333
                ],
                [
                    -0.04325,
                    -0.02288,
                    2.73067
                ]
            ],
            [
                [
                    2.59417,
                    -0.06224,
                    0.03087
                ],
                [
                    -0.09232,
                    2.68413,
                    0.11342
                ],
                [
                    -0.04325,
                    0.02288,
                    2.73067
                ]
            ],
            [
                [
                    2.59422,
                    0.06223,
                    0.03111
                ],
                [
                    0.09232,
                    2.68413,
                    -0.11342
                ],
                [
                    -0.0431,
                    -0.0229,
                    2.73046
                ]
            ],
            [
                [
                    -2.12727,
                    0.62821,
                    -0.04205
                ],
                [
                    0.87268,
                    -2.88253,
                    -0.00879
                ],
                [
                    -0.03938,
                    0.04786,
                    -1.91595
                ]
            ],
            [
                [
                    -2.12727,
                    -0.62821,
                    -0.04205
                ],
                [
                    -0.87268,
                    -2.88253,
                    0.00879
                ],
                [
                    -0.03938,
                    -0.04786,
                    -1.91595
                ]
            ],
            [
                [
                    -2.19954,
                    0.25983,
                    0.07268
                ],
                [
                    0.37428,
                    -2.51492,
                    -0.08084
                ],
                [
                    0.09131,
                    -0.09933,
                    -2.1519
                ]
            ],
            [
                [
                    -2.19929,
                    -0.2596,
                    0.07255
                ],
                [
                    -0.37428,
                    -2.51492,
                    0.08084
                ],
                [
                    0.09103,
                    0.09944,
                    -2.15165
                ]
            ],
            [
                [
                    -2.19929,
                    0.2596,
                    0.07255
                ],
                [
                    0.37432,
                    -2.515,
                    -0.08082
                ],
                [
                    0.09103,
                    -0.09944,
                    -2.15165
                ]
            ],
            [
                [
                    -2.19954,
                    -0.25983,
                    0.07268
                ],
                [
                    -0.37432,
                    -2.515,
                    0.08082
                ],
                [
                    0.09131,
                    0.09933,
                    -2.1519
                ]
            ],
            [
                [
                    -2.26545,
                    0.15922,
                    0.36503
                ],
                [
                    0.11994,
                    -1.90925,
                    0.17795
                ],
                [
                    0.40074,
                    0.14581,
                    -2.46489
                ]
            ],
            [
                [
                    -2.26586,
                    -0.15923,
                    0.36586
                ],
                [
                    -0.11994,
                    -1.90925,
                    -0.17795
                ],
                [
                    0.40041,
                    -0.14583,
                    -2.46478
                ]
            ],
            [
                [
                    -2.26586,
                    0.15923,
                    0.36586
                ],
                [
                    0.12004,
                    -1.90924,
                    0.17781
                ],
                [
                    0.40041,
                    0.14583,
                    -2.46478
                ]
            ],
            [
                [
                    -2.26545,
                    -0.15922,
                    0.36503
                ],
                [
                    -0.12004,
                    -1.90924,
                    -0.17781
                ],
                [
                    0.40074,
                    -0.14581,
                    -2.46489
                ]
            ],
            [
                [
                    -2.40208,
                    -0.05789,
                    -0.37873
                ],
                [
                    -0.04198,
                    -1.81193,
                    0.07423
                ],
                [
                    -0.37394,
                    0.02296,
                    -2.39603
                ]
            ],
            [
                [
                    -2.40183,
                    0.05793,
                    -0.37803
                ],
                [
                    0.04198,
                    -1.81193,
                    -0.07423
                ],
                [
                    -0.37397,
                    -0.02291,
                    -2.39597
                ]
            ],
            [
                [
                    -2.40183,
                    -0.05793,
                    -0.37803
                ],
                [
                    -0.04205,
                    -1.81184,
                    0.07412
                ],
                [
                    -0.37397,
                    0.02291,
                    -2.39597
                ]
            ],
            [
                [
                    -2.40208,
                    0.05789,
                    -0.37873
                ],
                [
                    0.04205,
                    -1.81184,
                    -0.07412
                ],
                [
                    -0.37394,
                    -0.02296,
                    -2.39603
                ]
            ]
        ]
    },
    "band_gap": 1.9837999999999998,
    "is_direct": true,
    "formula": "Cs8In2O7"
}