{
    "mp_id": "mp-1209286",
    "nelements": 3,
    "nsites": 22,
    "elements": [
        "Cd",
        "O",
        "Rb"
    ],
    "structure": {
        "@module": "pymatgen.core.structure",
        "@class": "Structure",
        "charge": null,
        "lattice": {
            "matrix": [
                [
                    9.04459359,
                    0.0,
                    0.0
                ],
                [
                    -4.5222968,
                    7.83284825,
                    0.0
                ],
                [
                    0.0,
                    0.0,
                    6.87212901
                ]
            ],
            "a": 9.04459359,
            "b": 9.044593968488487,
            "c": 6.87212901,
            "alpha": 90.0,
            "beta": 90.0,
            "gamma": 119.99999865228878,
            "volume": 486.8554922966545
        },
        "sites": [
            {
                "species": [
                    {
                        "element": "Rb",
                        "occu": 1
                    }
                ],
                "abc": [
                    0.53799108,
                    0.46200892,
                    0.11567109
                ],
                "xyz": [
                    2.77656921315772,
                    3.6188457605063897,
                    0.7949066532073209
                ],
                "label": "Rb",
                "properties": {}
            },
            {
                "species": [
                    {
                        "element": "Rb",
                        "occu": 1
                    }
                ],
                "abc": [
                    0.53799108,
                    0.07598317,
                    0.11567109
                ],
                "xyz": [
                    4.52229222710032,
                    0.5951646401639525,
                    0.7949066532073209
                ],
                "label": "Rb",
                "properties": {}
            },
            {
                "species": [
                    {
                        "element": "Rb",
                        "occu": 1
                    }
                ],
                "abc": [
                    0.46200892,
                    0.53799108,
                    0.61567109
                ],
                "xyz": [
                    1.7457275768422784,
                    4.214002489493609,
                    4.23097115820732
                ],
                "label": "Rb",
                "properties": {}
            },
            {
                "species": [
                    {
                        "element": "Rb",
                        "occu": 1
                    }
                ],
                "abc": [
                    0.92401683,
                    0.46200892,
                    0.11567109
                ],
                "xyz": [
                    6.268015237182664,
                    3.6188457605063897,
                    0.7949066532073209
                ],
                "label": "Rb",
                "properties": {}
            },
            {
                "species": [
                    {
                        "element": "Rb",
                        "occu": 1
                    }
                ],
                "abc": [
                    0.46200892,
                    0.92401683,
                    0.61567109
                ],
                "xyz": [
                    4.5628996785396225e-06,
                    7.237683609836047,
                    4.23097115820732
                ],
                "label": "Rb",
                "properties": {}
            },
            {
                "species": [
                    {
                        "element": "Rb",
                        "occu": 1
                    }
                ],
                "abc": [
                    0.07598317,
                    0.53799108,
                    0.61567109
                ],
                "xyz": [
                    -1.745718447182664,
                    4.214002489493609,
                    4.23097115820732
                ],
                "label": "Rb",
                "properties": {}
            },
            {
                "species": [
                    {
                        "element": "Rb",
                        "occu": 1
                    }
                ],
                "abc": [
                    0.14376899,
                    0.85623101,
                    0.28107783
                ],
                "xyz": [
                    -2.5717986711889944,
                    6.706727568274232,
                    1.9316031096108481
                ],
                "label": "Rb",
                "properties": {}
            },
            {
                "species": [
                    {
                        "element": "Rb",
                        "occu": 1
                    }
                ],
                "abc": [
                    0.14376899,
                    0.28753698,
                    0.28107783
                ],
                "xyz": [
                    4.520859110179742e-06,
                    2.252233530603285,
                    1.9316031096108481
                ],
                "label": "Rb",
                "properties": {}
            },
            {
                "species": [
                    {
                        "element": "Rb",
                        "occu": 1
                    }
                ],
                "abc": [
                    0.85623101,
                    0.14376899,
                    0.78107783
                ],
                "xyz": [
                    7.094095461188994,
                    1.1261206817257676,
                    5.367667614610848
                ],
                "label": "Rb",
                "properties": {}
            },
            {
                "species": [
                    {
                        "element": "Rb",
                        "occu": 1
                    }
                ],
                "abc": [
                    0.71246302,
                    0.85623101,
                    0.28107783
                ],
                "xyz": [
                    2.571807707220273,
                    6.706727568274232,
                    1.9316031096108481
                ],
                "label": "Rb",
                "properties": {}
            },
            {
                "species": [
                    {
                        "element": "Rb",
                        "occu": 1
                    }
                ],
                "abc": [
                    0.85623101,
                    0.71246302,
                    0.78107783
                ],
                "xyz": [
                    4.522292269140889,
                    5.580614719396714,
                    5.367667614610848
                ],
                "label": "Rb",
                "properties": {}
            },
            {
                "species": [
                    {
                        "element": "Rb",
                        "occu": 1
                    }
                ],
                "abc": [
                    0.28753698,
                    0.14376899,
                    0.78107783
                ],
                "xyz": [
                    1.9504890827797263,
                    1.1261206817257676,
                    5.367667614610848
                ],
                "label": "Rb",
                "properties": {}
            },
            {
                "species": [
                    {
                        "element": "Cd",
                        "occu": 1
                    }
                ],
                "abc": [
                    0.333333,
                    0.666667,
                    0.00747516
                ],
                "xyz": [
                    -4.52563013020324e-06,
                    5.22190144428275,
                    0.0513702638903916
                ],
                "label": "Cd",
                "properties": {}
            },
            {
                "species": [
                    {
                        "element": "Cd",
                        "occu": 1
                    }
                ],
                "abc": [
                    0.666667,
                    0.333333,
                    0.50747516
                ],
                "xyz": [
                    4.52230131563013,
                    2.61094680571725,
                    3.4874347688903917
                ],
                "label": "Cd",
                "properties": {}
            },
            {
                "species": [
                    {
                        "element": "O",
                        "occu": 1
                    }
                ],
                "abc": [
                    0.333333,
                    0.666667,
                    0.32978341
                ],
                "xyz": [
                    -4.52563013020324e-06,
                    5.22190144428275,
                    2.266314138877724
                ],
                "label": "O",
                "properties": {}
            },
            {
                "species": [
                    {
                        "element": "O",
                        "occu": 1
                    }
                ],
                "abc": [
                    0.666667,
                    0.333333,
                    0.82978341
                ],
                "xyz": [
                    4.52230131563013,
                    2.61094680571725,
                    5.702378643877724
                ],
                "label": "O",
                "properties": {}
            },
            {
                "species": [
                    {
                        "element": "O",
                        "occu": 1
                    }
                ],
                "abc": [
                    0.8037215,
                    0.1962785,
                    0.39883288
                ],
                "xyz": [
                    6.381704694586384,
                    1.5374197052376248,
                    2.740831004789849
                ],
                "label": "O",
                "properties": {}
            },
            {
                "species": [
                    {
                        "element": "O",
                        "occu": 1
                    }
                ],
                "abc": [
                    0.8037215,
                    0.607443,
                    0.39883288
                ],
                "xyz": [
                    4.522296791962784,
                    4.7580088395247495,
                    2.740831004789849
                ],
                "label": "O",
                "properties": {}
            },
            {
                "species": [
                    {
                        "element": "O",
                        "occu": 1
                    }
                ],
                "abc": [
                    0.1962785,
                    0.8037215,
                    0.89883288
                ],
                "xyz": [
                    -1.8594079045863854,
                    6.295428544762374,
                    6.176895509789849
                ],
                "label": "O",
                "properties": {}
            },
            {
                "species": [
                    {
                        "element": "O",
                        "occu": 1
                    }
                ],
                "abc": [
                    0.392557,
                    0.1962785,
                    0.39883288
                ],
                "xyz": [
                    2.66288889345083,
                    1.5374197052376248,
                    2.740831004789849
                ],
                "label": "O",
                "properties": {}
            },
            {
                "species": [
                    {
                        "element": "O",
                        "occu": 1
                    }
                ],
                "abc": [
                    0.1962785,
                    0.392557,
                    0.89883288
                ],
                "xyz": [
                    -1.962785045606097e-09,
                    3.0748394104752497,
                    6.176895509789849
                ],
                "label": "O",
                "properties": {}
            },
            {
                "species": [
                    {
                        "element": "O",
                        "occu": 1
                    }
                ],
                "abc": [
                    0.607443,
                    0.8037215,
                    0.89883288
                ],
                "xyz": [
                    1.8594078965491696,
                    6.295428544762374,
                    6.176895509789849
                ],
                "label": "O",
                "properties": {}
            }
        ]
    },
    "spacegroup": {
        "source": "spglib",
        "symbol": "P6_3mc",
        "number": 186,
        "point_group": "6mm",
        "crystal_system": "hexagonal",
        "hall": "P 6c -2c"
    },
    "dielectric": {
        "epsilon_ionic": [
            [
                8.29779451,
                1e-08,
                -0.00032448
            ],
            [
                1e-08,
                8.29741294,
                0.00014403
            ],
            [
                -0.00032448,
                0.00014403,
                6.47968826
            ]
        ],
        "epsilon_ionic_avg": 7.691631903333332,
        "epsilon_ionic_eig": [
            6.479688190677171,
            8.297794567911057,
            8.297412951411768
        ],
        "epsilon_electronic": [
            [
                3.73461825,
                0.0,
                -0.0
            ],
            [
                0.0,
                3.73461809,
                -0.0
            ],
            [
                0.0,
                0.0,
                3.85512516
            ]
        ],
        "epsilon_electronic_avg": 3.7747871666666666,
        "epsilon_electronic_eig": [
            3.73461825,
            3.73461809,
            3.85512516
        ]
    },
    "phonon": {
        "lowest_freq": -0.03975448968193876,
        "frequency": [
            -0.03975448968193876,
            -0.027437069533264337,
            -0.027437068909728017,
            1.3469475095193486,
            1.6352590224272718,
            1.635259029900098,
            1.7683462279690336,
            1.7683462348794488,
            1.7773322488565457,
            1.7773322626074992,
            1.8880036952818102,
            1.949014820365059,
            1.9490148517142472,
            1.9902946312660146,
            2.064604184737662,
            2.0646041965752886,
            2.2041528264814816,
            2.3071358925628918,
            2.3401610336989007,
            2.3401610389207663,
            2.343138255985017,
            2.3431382664154783,
            2.649188442544535,
            2.655314480852625,
            2.655314517669376,
            2.7718921518139212,
            3.2126487226481197,
            3.2700104511046955,
            3.2753700864235533,
            3.2753701125397003,
            3.3337426366371683,
            3.33374268062379,
            3.539669018732647,
            3.5396690463510625,
            3.5432264647190035,
            3.605970881948355,
            3.6059709260030877,
            3.8076353884334084,
            3.935072194087367,
            3.935072234457677,
            3.9859875588655824,
            4.187198036553509,
            4.377529683657768,
            4.6896137415087376,
            4.689613817075768,
            4.82582770723624,
            4.825827798395779,
            5.014429247277303,
            5.3805393519256635,
            5.380539420060133,
            6.366558179783064,
            6.36655819897712,
            6.6576574485707445,
            7.006781567269941,
            7.006781567269941,
            7.597433384503209,
            7.597433529262699,
            7.631589475284668,
            8.952560804797676,
            8.952560832097143,
            9.135890821371627,
            9.135890888250746,
            10.235863768591246,
            10.56721872652857,
            11.890387529634445,
            12.271605158885192
        ]
    },
    "born_effective_charge": {
        "avg_abs_trace": 1.566795303030303,
        "tensors": [
            [
                [
                    1.15012,
                    -0.17763,
                    0.09924
                ],
                [
                    -0.17773,
                    0.9448,
                    -0.05727
                ],
                [
                    0.07563,
                    -0.04366,
                    1.30837
                ]
            ],
            [
                [
                    0.8423,
                    -0.00013,
                    -3e-05
                ],
                [
                    0.0,
                    1.25273,
                    0.11463
                ],
                [
                    -0.0,
                    0.08733,
                    1.30837
                ]
            ],
            [
                [
                    1.15016,
                    -0.17782,
                    -0.09927
                ],
                [
                    -0.1776,
                    0.9448,
                    0.05747
                ],
                [
                    -0.07563,
                    0.04366,
                    1.30837
                ]
            ],
            [
                [
                    1.15016,
                    0.17782,
                    -0.09927
                ],
                [
                    0.17773,
                    0.9448,
                    -0.05727
                ],
                [
                    -0.07563,
                    -0.04366,
                    1.30837
                ]
            ],
            [
                [
                    0.8423,
                    0.00013,
                    -3e-05
                ],
                [
                    0.0,
                    1.25276,
                    -0.11459
                ],
                [
                    -0.0,
                    -0.08733,
                    1.30837
                ]
            ],
            [
                [
                    1.15012,
                    0.17763,
                    0.09924
                ],
                [
                    0.1776,
                    0.9448,
                    0.05747
                ],
                [
                    0.07563,
                    0.04366,
                    1.30837
                ]
            ],
            [
                [
                    1.10725,
                    0.09995,
                    -0.08406
                ],
                [
                    0.10001,
                    1.22279,
                    0.04844
                ],
                [
                    -0.10301,
                    0.05947,
                    1.12623
                ]
            ],
            [
                [
                    1.28054,
                    -2e-05,
                    7e-05
                ],
                [
                    -0.0,
                    1.04957,
                    -0.09688
                ],
                [
                    -0.0,
                    -0.11894,
                    1.12623
                ]
            ],
            [
                [
                    1.1074,
                    0.10001,
                    0.0839
                ],
                [
                    0.09997,
                    1.22285,
                    -0.04847
                ],
                [
                    0.10301,
                    -0.05947,
                    1.12623
                ]
            ],
            [
                [
                    1.1074,
                    -0.10001,
                    0.0839
                ],
                [
                    -0.10001,
                    1.22279,
                    0.04844
                ],
                [
                    0.10301,
                    0.05947,
                    1.12623
                ]
            ],
            [
                [
                    1.28054,
                    2e-05,
                    7e-05
                ],
                [
                    -0.0,
                    1.04955,
                    0.09679
                ],
                [
                    0.0,
                    0.11894,
                    1.12623
                ]
            ],
            [
                [
                    1.10725,
                    -0.09995,
                    -0.08406
                ],
                [
                    -0.09997,
                    1.22285,
                    -0.04847
                ],
                [
                    -0.10301,
                    -0.05947,
                    1.12623
                ]
            ],
            [
                [
                    1.75696,
                    -0.00032,
                    -0.00031
                ],
                [
                    0.0,
                    1.75703,
                    -0.00026
                ],
                [
                    -0.0,
                    -0.0,
                    1.75908
                ]
            ],
            [
                [
                    1.75696,
                    0.00032,
                    -0.00031
                ],
                [
                    0.0,
                    1.75691,
                    0.00046
                ],
                [
                    -0.0,
                    -0.0,
                    1.75908
                ]
            ],
            [
                [
                    -1.84167,
                    -1e-05,
                    -0.00023
                ],
                [
                    0.0,
                    -1.84153,
                    -0.00027
                ],
                [
                    -0.0,
                    -0.0,
                    -2.66937
                ]
            ],
            [
                [
                    -1.84167,
                    1e-05,
                    -0.00023
                ],
                [
                    0.0,
                    -1.84165,
                    -0.00022
                ],
                [
                    -0.0,
                    -0.0,
                    -2.66937
                ]
            ],
            [
                [
                    -2.24218,
                    0.1,
                    0.18329
                ],
                [
                    0.10024,
                    -2.12644,
                    -0.10576
                ],
                [
                    0.13097,
                    -0.07561,
                    -2.13117
                ]
            ],
            [
                [
                    -2.06845,
                    -0.00031,
                    0.00028
                ],
                [
                    0.0,
                    -2.30006,
                    0.21136
                ],
                [
                    0.0,
                    0.15123,
                    -2.13117
                ]
            ],
            [
                [
                    -2.24242,
                    0.10045,
                    -0.18286
                ],
                [
                    0.10027,
                    -2.12633,
                    0.10576
                ],
                [
                    -0.13097,
                    0.07561,
                    -2.13117
                ]
            ],
            [
                [
                    -2.24242,
                    -0.10045,
                    -0.18286
                ],
                [
                    -0.10024,
                    -2.12644,
                    -0.10576
                ],
                [
                    -0.13097,
                    -0.07561,
                    -2.13117
                ]
            ],
            [
                [
                    -2.06845,
                    0.00031,
                    0.00028
                ],
                [
                    0.0,
                    -2.30026,
                    -0.21135
                ],
                [
                    -0.0,
                    -0.15123,
                    -2.13117
                ]
            ],
            [
                [
                    -2.24218,
                    -0.1,
                    0.18329
                ],
                [
                    -0.10027,
                    -2.12633,
                    0.10576
                ],
                [
                    0.13097,
                    0.07561,
                    -2.13117
                ]
            ]
        ]
    },
    "band_gap": 1.4880999999999998,
    "is_direct": true,
    "formula": "Rb6CdO4"
}