{
    "mp_id": "mp-1219631",
    "nelements": 4,
    "nsites": 32,
    "elements": [
        "O",
        "Rb",
        "Ta",
        "Ti"
    ],
    "structure": {
        "@module": "pymatgen.core.structure",
        "@class": "Structure",
        "charge": null,
        "lattice": {
            "matrix": [
                [
                    6.4639934,
                    0.0,
                    0.0
                ],
                [
                    0.0,
                    3.88310957,
                    0.0
                ],
                [
                    0.0,
                    0.0,
                    18.90292958
                ]
            ],
            "a": 6.4639934,
            "b": 3.88310957,
            "c": 18.90292958,
            "alpha": 90.0,
            "beta": 90.0,
            "gamma": 90.0,
            "volume": 474.47099215809004
        },
        "sites": [
            {
                "species": [
                    {
                        "element": "Rb",
                        "occu": 1
                    }
                ],
                "abc": [
                    0.78923262,
                    0.25,
                    0.19581099
                ],
                "xyz": [
                    5.101594446744708,
                    0.9707773925,
                    3.7014013549600837
                ],
                "label": "Rb",
                "properties": {}
            },
            {
                "species": [
                    {
                        "element": "Rb",
                        "occu": 1
                    }
                ],
                "abc": [
                    0.28923262,
                    0.25,
                    0.30418901
                ],
                "xyz": [
                    1.8695977467447078,
                    0.9707773925,
                    5.750063435039915
                ],
                "label": "Rb",
                "properties": {}
            },
            {
                "species": [
                    {
                        "element": "Rb",
                        "occu": 1
                    }
                ],
                "abc": [
                    0.21076738,
                    0.75,
                    0.80418901
                ],
                "xyz": [
                    1.362398953255292,
                    2.9123321774999997,
                    15.201528225039914
                ],
                "label": "Rb",
                "properties": {}
            },
            {
                "species": [
                    {
                        "element": "Rb",
                        "occu": 1
                    }
                ],
                "abc": [
                    0.71076738,
                    0.75,
                    0.69581099
                ],
                "xyz": [
                    4.594395653255291,
                    2.9123321774999997,
                    13.152866144960084
                ],
                "label": "Rb",
                "properties": {}
            },
            {
                "species": [
                    {
                        "element": "Ta",
                        "occu": 1
                    }
                ],
                "abc": [
                    0.77139743,
                    0.25,
                    0.89459627
                ],
                "xyz": [
                    4.986307896296962,
                    0.9707773925,
                    16.910490294340665
                ],
                "label": "Ta",
                "properties": {}
            },
            {
                "species": [
                    {
                        "element": "Ta",
                        "occu": 1
                    }
                ],
                "abc": [
                    0.27139743,
                    0.25,
                    0.60540373
                ],
                "xyz": [
                    1.754311196296962,
                    0.9707773925,
                    11.443904075659333
                ],
                "label": "Ta",
                "properties": {}
            },
            {
                "species": [
                    {
                        "element": "Ta",
                        "occu": 1
                    }
                ],
                "abc": [
                    0.22860257,
                    0.75,
                    0.10540373
                ],
                "xyz": [
                    1.4776855037030379,
                    2.9123321774999997,
                    1.9924392856593334
                ],
                "label": "Ta",
                "properties": {}
            },
            {
                "species": [
                    {
                        "element": "Ta",
                        "occu": 1
                    }
                ],
                "abc": [
                    0.72860257,
                    0.75,
                    0.39459627
                ],
                "xyz": [
                    4.7096822037030375,
                    2.9123321774999997,
                    7.459025504340667
                ],
                "label": "Ta",
                "properties": {}
            },
            {
                "species": [
                    {
                        "element": "Ti",
                        "occu": 1
                    }
                ],
                "abc": [
                    0.32209615,
                    0.25,
                    0.9685465
                ],
                "xyz": [
                    2.08202738776541,
                    0.9707773925,
                    18.308366284455467
                ],
                "label": "Ti",
                "properties": {}
            },
            {
                "species": [
                    {
                        "element": "Ti",
                        "occu": 1
                    }
                ],
                "abc": [
                    0.82209615,
                    0.25,
                    0.5314535
                ],
                "xyz": [
                    5.31402408776541,
                    0.9707773925,
                    10.04602808554453
                ],
                "label": "Ti",
                "properties": {}
            },
            {
                "species": [
                    {
                        "element": "Ti",
                        "occu": 1
                    }
                ],
                "abc": [
                    0.67790385,
                    0.75,
                    0.0314535
                ],
                "xyz": [
                    4.38196601223459,
                    2.9123321774999997,
                    0.59456329554453
                ],
                "label": "Ti",
                "properties": {}
            },
            {
                "species": [
                    {
                        "element": "Ti",
                        "occu": 1
                    }
                ],
                "abc": [
                    0.17790385,
                    0.75,
                    0.4685465
                ],
                "xyz": [
                    1.14996931223459,
                    2.9123321774999997,
                    8.85690149445547
                ],
                "label": "Ti",
                "properties": {}
            },
            {
                "species": [
                    {
                        "element": "O",
                        "occu": 1
                    }
                ],
                "abc": [
                    0.06195383,
                    0.25,
                    0.930542
                ],
                "xyz": [
                    0.400469148224722,
                    0.9707773925,
                    17.589969897232358
                ],
                "label": "O",
                "properties": {}
            },
            {
                "species": [
                    {
                        "element": "O",
                        "occu": 1
                    }
                ],
                "abc": [
                    0.56195383,
                    0.25,
                    0.569458
                ],
                "xyz": [
                    3.632465848224722,
                    0.9707773925,
                    10.76442447276764
                ],
                "label": "O",
                "properties": {}
            },
            {
                "species": [
                    {
                        "element": "O",
                        "occu": 1
                    }
                ],
                "abc": [
                    0.93804617,
                    0.75,
                    0.069458
                ],
                "xyz": [
                    6.063524251775278,
                    2.9123321774999997,
                    1.31295968276764
                ],
                "label": "O",
                "properties": {}
            },
            {
                "species": [
                    {
                        "element": "O",
                        "occu": 1
                    }
                ],
                "abc": [
                    0.43804617,
                    0.75,
                    0.430542
                ],
                "xyz": [
                    2.831527551775278,
                    2.9123321774999997,
                    8.138505107232358
                ],
                "label": "O",
                "properties": {}
            },
            {
                "species": [
                    {
                        "element": "O",
                        "occu": 1
                    }
                ],
                "abc": [
                    0.46392187,
                    0.25,
                    0.88150126
                ],
                "xyz": [
                    2.998787905795658,
                    0.9707773925,
                    16.66295624246127
                ],
                "label": "O",
                "properties": {}
            },
            {
                "species": [
                    {
                        "element": "O",
                        "occu": 1
                    }
                ],
                "abc": [
                    0.96392187,
                    0.25,
                    0.61849874
                ],
                "xyz": [
                    6.230784605795657,
                    0.9707773925,
                    11.69143812753873
                ],
                "label": "O",
                "properties": {}
            },
            {
                "species": [
                    {
                        "element": "O",
                        "occu": 1
                    }
                ],
                "abc": [
                    0.53607813,
                    0.75,
                    0.11849874
                ],
                "xyz": [
                    3.465205494204342,
                    2.9123321774999997,
                    2.239973337538729
                ],
                "label": "O",
                "properties": {}
            },
            {
                "species": [
                    {
                        "element": "O",
                        "occu": 1
                    }
                ],
                "abc": [
                    0.03607813,
                    0.75,
                    0.38150126
                ],
                "xyz": [
                    0.23320879420434198,
                    2.9123321774999997,
                    7.211491452461271
                ],
                "label": "O",
                "properties": {}
            },
            {
                "species": [
                    {
                        "element": "O",
                        "occu": 1
                    }
                ],
                "abc": [
                    0.24077444,
                    0.25,
                    0.07865893
                ],
                "xyz": [
                    1.556364391048696,
                    0.9707773925,
                    1.4868842146281493
                ],
                "label": "O",
                "properties": {}
            },
            {
                "species": [
                    {
                        "element": "O",
                        "occu": 1
                    }
                ],
                "abc": [
                    0.74077444,
                    0.25,
                    0.42134107
                ],
                "xyz": [
                    4.788361091048696,
                    0.9707773925,
                    7.9645805753718495
                ],
                "label": "O",
                "properties": {}
            },
            {
                "species": [
                    {
                        "element": "O",
                        "occu": 1
                    }
                ],
                "abc": [
                    0.75922556,
                    0.75,
                    0.92134107
                ],
                "xyz": [
                    4.907629008951304,
                    2.9123321774999997,
                    17.41604536537185
                ],
                "label": "O",
                "properties": {}
            },
            {
                "species": [
                    {
                        "element": "O",
                        "occu": 1
                    }
                ],
                "abc": [
                    0.25922556,
                    0.75,
                    0.57865893
                ],
                "xyz": [
                    1.675632308951304,
                    2.9123321774999997,
                    10.938349004628149
                ],
                "label": "O",
                "properties": {}
            },
            {
                "species": [
                    {
                        "element": "O",
                        "occu": 1
                    }
                ],
                "abc": [
                    0.64264024,
                    0.25,
                    0.00746139
                ],
                "xyz": [
                    4.154022269934416,
                    0.9707773925,
                    0.1410421297389162
                ],
                "label": "O",
                "properties": {}
            },
            {
                "species": [
                    {
                        "element": "O",
                        "occu": 1
                    }
                ],
                "abc": [
                    0.14264024,
                    0.25,
                    0.49253861
                ],
                "xyz": [
                    0.922025569934416,
                    0.9707773925,
                    9.310422660261082
                ],
                "label": "O",
                "properties": {}
            },
            {
                "species": [
                    {
                        "element": "O",
                        "occu": 1
                    }
                ],
                "abc": [
                    0.35735976,
                    0.75,
                    0.99253861
                ],
                "xyz": [
                    2.309971130065584,
                    2.9123321774999997,
                    18.76188745026108
                ],
                "label": "O",
                "properties": {}
            },
            {
                "species": [
                    {
                        "element": "O",
                        "occu": 1
                    }
                ],
                "abc": [
                    0.85735976,
                    0.75,
                    0.50746139
                ],
                "xyz": [
                    5.541967830065584,
                    2.9123321774999997,
                    9.592506919738916
                ],
                "label": "O",
                "properties": {}
            },
            {
                "species": [
                    {
                        "element": "O",
                        "occu": 1
                    }
                ],
                "abc": [
                    0.84029513,
                    0.25,
                    0.80209575
                ],
                "xyz": [
                    5.431662174372142,
                    0.9707773925,
                    15.161959478667283
                ],
                "label": "O",
                "properties": {}
            },
            {
                "species": [
                    {
                        "element": "O",
                        "occu": 1
                    }
                ],
                "abc": [
                    0.34029513,
                    0.25,
                    0.69790425
                ],
                "xyz": [
                    2.199665474372142,
                    0.9707773925,
                    13.192434891332715
                ],
                "label": "O",
                "properties": {}
            },
            {
                "species": [
                    {
                        "element": "O",
                        "occu": 1
                    }
                ],
                "abc": [
                    0.15970487,
                    0.75,
                    0.19790425
                ],
                "xyz": [
                    1.0323312256278578,
                    2.9123321774999997,
                    3.7409701013327146
                ],
                "label": "O",
                "properties": {}
            },
            {
                "species": [
                    {
                        "element": "O",
                        "occu": 1
                    }
                ],
                "abc": [
                    0.65970487,
                    0.75,
                    0.30209575
                ],
                "xyz": [
                    4.264327925627858,
                    2.9123321774999997,
                    5.710494688667285
                ],
                "label": "O",
                "properties": {}
            }
        ]
    },
    "spacegroup": {
        "source": "spglib",
        "symbol": "Pnma",
        "number": 62,
        "point_group": "mmm",
        "crystal_system": "orthorhombic",
        "hall": "-P 2ac 2n"
    },
    "dielectric": {
        "epsilon_ionic": [
            [
                17.04876416,
                -2.4e-07,
                5e-08
            ],
            [
                -2.4e-07,
                11.29860214,
                -1e-08
            ],
            [
                5e-08,
                -1e-08,
                5.95077593
            ]
        ],
        "epsilon_ionic_avg": 11.43271407666667,
        "epsilon_ionic_eig": [
            17.048764160000015,
            11.298602139999996,
            5.95077593
        ],
        "epsilon_electronic": [
            [
                4.79237427,
                -0.0,
                0.0
            ],
            [
                0.0,
                4.20061167,
                0.0
            ],
            [
                0.0,
                0.0,
                3.64409486
            ]
        ],
        "epsilon_electronic_avg": 4.212360266666667,
        "epsilon_electronic_eig": [
            4.79237427,
            4.20061167,
            3.64409486
        ]
    },
    "phonon": {
        "lowest_freq": -0.04491640505647388,
        "frequency": [
            -0.04491640505647388,
            -0.044183884450377,
            -0.04015166427192523,
            0.8153291688486989,
            1.037834882066564,
            1.485914982104537,
            1.5720520617515246,
            1.5942026581370254,
            1.6354002452727507,
            1.663460182515445,
            2.064978462480275,
            2.114299427807983,
            2.238885373052616,
            2.2782029635947167,
            2.4437132801431085,
            2.485300280194498,
            2.541902809272899,
            2.586283124898256,
            2.610708069599491,
            2.625315295228389,
            2.7937661209831886,
            2.85740804269039,
            3.7810897386817484,
            3.945141086017886,
            4.44603441679703,
            4.465569571425156,
            5.4796764498806185,
            5.5265298702780985,
            5.6604200578854655,
            5.665529588381933,
            5.777762089724087,
            5.844004749607411,
            6.277843401786774,
            6.296693691487598,
            6.4140358808832945,
            6.440336804877348,
            6.836119852039842,
            6.873667620933208,
            7.065497222966459,
            7.171283203500461,
            7.440506895379008,
            7.447069376709154,
            7.592083844259688,
            7.612247813749133,
            7.78965460089499,
            7.797188196855861,
            7.798743253590918,
            7.8664609123206155,
            7.873577503810006,
            8.021901023492699,
            8.07815262305173,
            8.078726378477143,
            8.580159457014592,
            8.892701676632758,
            9.034375015623807,
            9.07131517660925,
            9.243717655993139,
            9.333718767908726,
            10.450277881599222,
            10.452845558559813,
            10.595630274184794,
            10.617600849676123,
            10.838940905608055,
            10.843805058353725,
            12.53477404670998,
            12.54396702272645,
            12.702817592275666,
            12.721864689527102,
            13.301382177301042,
            13.301935518387452,
            14.620807424651774,
            14.622816246754315,
            15.206261389721439,
            15.785847204774784,
            16.29316152143952,
            16.447474290496075,
            16.635554812223162,
            16.678907686030403,
            16.679827225112945,
            16.79259246409929,
            18.243005509703135,
            18.324994775641702,
            18.45585883885074,
            18.58560366068102,
            19.414968989711483,
            19.415622433831548,
            19.932377714439415,
            19.932697552161308,
            22.120138956874346,
            23.915988497161216,
            24.15312824662831,
            24.502379497507018,
            25.1011935990393,
            25.10931902947268,
            25.8307560641522,
            26.114591945081543
        ]
    },
    "born_effective_charge": {
        "avg_abs_trace": 3.0652541666666666,
        "tensors": [
            [
                [
                    1.12776,
                    0.0,
                    0.07455
                ],
                [
                    -1e-05,
                    1.303,
                    -5e-05
                ],
                [
                    -0.14852,
                    -0.0,
                    1.6318
                ]
            ],
            [
                [
                    1.12776,
                    0.0,
                    -0.07455
                ],
                [
                    -1e-05,
                    1.303,
                    5e-05
                ],
                [
                    0.1485,
                    -0.0,
                    1.632
                ]
            ],
            [
                [
                    1.12776,
                    0.0,
                    0.0746
                ],
                [
                    1e-05,
                    1.303,
                    5e-05
                ],
                [
                    -0.1485,
                    -0.0,
                    1.632
                ]
            ],
            [
                [
                    1.12776,
                    0.0,
                    -0.0746
                ],
                [
                    1e-05,
                    1.303,
                    -5e-05
                ],
                [
                    0.14852,
                    -0.0,
                    1.6318
                ]
            ],
            [
                [
                    7.67626,
                    0.0,
                    0.33241
                ],
                [
                    -0.00013,
                    6.1763,
                    0.00073
                ],
                [
                    -0.57422,
                    -0.0,
                    4.37376
                ]
            ],
            [
                [
                    7.67626,
                    0.0,
                    -0.33241
                ],
                [
                    -0.00013,
                    6.1763,
                    -0.00073
                ],
                [
                    0.57431,
                    -0.0,
                    4.37365
                ]
            ],
            [
                [
                    7.67724,
                    0.0,
                    0.33182
                ],
                [
                    0.00013,
                    6.1763,
                    -0.00073
                ],
                [
                    -0.57431,
                    -0.0,
                    4.37365
                ]
            ],
            [
                [
                    7.67724,
                    0.0,
                    -0.33182
                ],
                [
                    0.00013,
                    6.1763,
                    0.00073
                ],
                [
                    0.57422,
                    0.0,
                    4.37376
                ]
            ],
            [
                [
                    5.99108,
                    0.0,
                    -0.58731
                ],
                [
                    0.00055,
                    5.18837,
                    0.00124
                ],
                [
                    0.28258,
                    -0.0,
                    3.31441
                ]
            ],
            [
                [
                    5.99108,
                    0.0,
                    0.58731
                ],
                [
                    0.00055,
                    5.18837,
                    -0.00124
                ],
                [
                    -0.28228,
                    -0.0,
                    3.31478
                ]
            ],
            [
                [
                    5.99025,
                    -0.0,
                    -0.58838
                ],
                [
                    -0.00055,
                    5.18837,
                    -0.00124
                ],
                [
                    0.28228,
                    -0.0,
                    3.31478
                ]
            ],
            [
                [
                    5.99025,
                    -0.0,
                    0.58838
                ],
                [
                    -0.00055,
                    5.18837,
                    0.00124
                ],
                [
                    -0.28258,
                    0.0,
                    3.31441
                ]
            ],
            [
                [
                    -5.824,
                    0.0,
                    -1.90221
                ],
                [
                    1e-05,
                    -1.14565,
                    0.0002
                ],
                [
                    -1.05177,
                    -0.0,
                    -1.21458
                ]
            ],
            [
                [
                    -5.824,
                    0.0,
                    1.90221
                ],
                [
                    1e-05,
                    -1.14565,
                    -0.0002
                ],
                [
                    1.05176,
                    -0.0,
                    -1.21444
                ]
            ],
            [
                [
                    -5.82526,
                    -0.0,
                    -1.90162
                ],
                [
                    -1e-05,
                    -1.14565,
                    -0.0002
                ],
                [
                    -1.05176,
                    -0.0,
                    -1.21444
                ]
            ],
            [
                [
                    -5.82526,
                    -0.0,
                    1.90162
                ],
                [
                    -1e-05,
                    -1.14565,
                    0.0002
                ],
                [
                    1.05177,
                    -0.0,
                    -1.21458
                ]
            ],
            [
                [
                    -4.03346,
                    0.0,
                    1.18127
                ],
                [
                    -6e-05,
                    -1.19038,
                    -0.00015
                ],
                [
                    0.5086,
                    -0.0,
                    -1.83077
                ]
            ],
            [
                [
                    -4.03346,
                    0.0,
                    -1.18127
                ],
                [
                    -6e-05,
                    -1.19038,
                    0.00015
                ],
                [
                    -0.50847,
                    -0.0,
                    -1.83074
                ]
            ],
            [
                [
                    -4.03391,
                    -0.0,
                    1.1824
                ],
                [
                    6e-05,
                    -1.19038,
                    0.00015
                ],
                [
                    0.50847,
                    0.0,
                    -1.83074
                ]
            ],
            [
                [
                    -4.03391,
                    -0.0,
                    -1.1824
                ],
                [
                    6e-05,
                    -1.19038,
                    -0.00015
                ],
                [
                    -0.5086,
                    -0.0,
                    -1.83077
                ]
            ],
            [
                [
                    -1.47612,
                    0.0,
                    0.40948
                ],
                [
                    -0.00013,
                    -4.78975,
                    0.00167
                ],
                [
                    0.2412,
                    0.0,
                    -1.53177
                ]
            ],
            [
                [
                    -1.47612,
                    0.0,
                    -0.40948
                ],
                [
                    -0.00013,
                    -4.78975,
                    -0.00167
                ],
                [
                    -0.24136,
                    -0.0,
                    -1.53184
                ]
            ],
            [
                [
                    -1.4759,
                    0.0,
                    0.40942
                ],
                [
                    0.00013,
                    -4.78975,
                    -0.00167
                ],
                [
                    0.24136,
                    -0.0,
                    -1.53184
                ]
            ],
            [
                [
                    -1.4759,
                    0.0,
                    -0.40942
                ],
                [
                    0.00013,
                    -4.78975,
                    0.00167
                ],
                [
                    -0.2412,
                    -0.0,
                    -1.53177
                ]
            ],
            [
                [
                    -2.05695,
                    0.0,
                    0.04818
                ],
                [
                    0.00078,
                    -4.40297,
                    0.00197
                ],
                [
                    -0.04641,
                    -0.0,
                    -1.48207
                ]
            ],
            [
                [
                    -2.05695,
                    0.0,
                    -0.04818
                ],
                [
                    0.00078,
                    -4.40297,
                    -0.00197
                ],
                [
                    0.04631,
                    -0.0,
                    -1.48225
                ]
            ],
            [
                [
                    -2.0568,
                    0.0,
                    0.04904
                ],
                [
                    -0.00078,
                    -4.40297,
                    -0.00197
                ],
                [
                    -0.04631,
                    -0.0,
                    -1.48225
                ]
            ],
            [
                [
                    -2.0568,
                    0.0,
                    -0.04904
                ],
                [
                    -0.00078,
                    -4.40297,
                    0.00197
                ],
                [
                    0.04641,
                    -0.0,
                    -1.48207
                ]
            ],
            [
                [
                    -1.40397,
                    -0.0,
                    0.34011
                ],
                [
                    -0.0,
                    -1.13892,
                    1e-05
                ],
                [
                    0.48533,
                    -0.0,
                    -3.26111
                ]
            ],
            [
                [
                    -1.40397,
                    -0.0,
                    -0.34011
                ],
                [
                    -0.0,
                    -1.13892,
                    -1e-05
                ],
                [
                    -0.48538,
                    -0.0,
                    -3.26084
                ]
            ],
            [
                [
                    -1.40399,
                    -0.0,
                    0.33953
                ],
                [
                    0.0,
                    -1.13892,
                    -1e-05
                ],
                [
                    0.48538,
                    -0.0,
                    -3.26084
                ]
            ],
            [
                [
                    -1.40399,
                    -0.0,
                    -0.33953
                ],
                [
                    0.0,
                    -1.13892,
                    1e-05
                ],
                [
                    -0.48533,
                    -0.0,
                    -3.26111
                ]
            ]
        ]
    },
    "band_gap": 3.2599,
    "is_direct": false,
    "formula": "RbTaTiO5"
}