{
    "mp_id": "mp-11189",
    "nelements": 4,
    "nsites": 32,
    "elements": [
        "Li",
        "Mg",
        "O",
        "Si"
    ],
    "structure": {
        "@module": "pymatgen.core.structure",
        "@class": "Structure",
        "charge": null,
        "lattice": {
            "matrix": [
                [
                    4.99584578,
                    0.0,
                    -0.00037621
                ],
                [
                    0.0,
                    10.7094076,
                    0.0
                ],
                [
                    -4.93807514,
                    0.0,
                    6.29368776
                ]
            ],
            "a": 4.995845794165166,
            "b": 10.7094076,
            "c": 7.999693225909343,
            "alpha": 90.0,
            "beta": 128.12231431999203,
            "gamma": 90.0,
            "volume": 336.7084408528151
        },
        "sites": [
            {
                "species": [
                    {
                        "element": "Li",
                        "occu": 1
                    }
                ],
                "abc": [
                    0.3109776,
                    0.16218309,
                    0.00349428
                ],
                "xyz": [
                    1.5363411134343288,
                    1.7368848166374842,
                    0.0218749143831168
                ],
                "label": "Li",
                "properties": {}
            },
            {
                "species": [
                    {
                        "element": "Li",
                        "occu": 1
                    }
                ],
                "abc": [
                    0.6890224,
                    0.66218309,
                    0.49650572
                ],
                "xyz": [
                    0.9904670965656712,
                    7.091588616637484,
                    3.124592755616883
                ],
                "label": "Li",
                "properties": {}
            },
            {
                "species": [
                    {
                        "element": "Li",
                        "occu": 1
                    }
                ],
                "abc": [
                    0.6890224,
                    0.83781691,
                    0.99650572
                ],
                "xyz": [
                    -1.4785704734343286,
                    8.972522783362516,
                    6.271436635616884
                ],
                "label": "Li",
                "properties": {}
            },
            {
                "species": [
                    {
                        "element": "Li",
                        "occu": 1
                    }
                ],
                "abc": [
                    0.3109776,
                    0.33781691,
                    0.50349428
                ],
                "xyz": [
                    -0.9326964565656708,
                    3.6178189833625165,
                    3.1687187943831163
                ],
                "label": "Li",
                "properties": {}
            },
            {
                "species": [
                    {
                        "element": "Li",
                        "occu": 1
                    }
                ],
                "abc": [
                    0.46713752,
                    0.07441198,
                    0.76284848
                ],
                "xyz": [
                    -1.433256106703122,
                    0.7969082241430481,
                    4.8009543995042065
                ],
                "label": "Li",
                "properties": {}
            },
            {
                "species": [
                    {
                        "element": "Li",
                        "occu": 1
                    }
                ],
                "abc": [
                    0.53286248,
                    0.57441198,
                    0.73715152
                ],
                "xyz": [
                    -0.9780108232968776,
                    6.1516120241430485,
                    4.639201030495794
                ],
                "label": "Li",
                "properties": {}
            },
            {
                "species": [
                    {
                        "element": "Li",
                        "occu": 1
                    }
                ],
                "abc": [
                    0.53286248,
                    0.92558802,
                    0.23715152
                ],
                "xyz": [
                    1.4910267467031217,
                    9.912499375856951,
                    1.4923571504957944
                ],
                "label": "Li",
                "properties": {}
            },
            {
                "species": [
                    {
                        "element": "Li",
                        "occu": 1
                    }
                ],
                "abc": [
                    0.46713752,
                    0.42558802,
                    0.26284848
                ],
                "xyz": [
                    1.0357814632968783,
                    4.557795575856952,
                    1.6541105195042056
                ],
                "label": "Li",
                "properties": {}
            },
            {
                "species": [
                    {
                        "element": "Mg",
                        "occu": 1
                    }
                ],
                "abc": [
                    0.80876637,
                    0.16486916,
                    0.50089748
                ],
                "xyz": [
                    1.567002662893771,
                    1.765651035109616,
                    3.1521880728947873
                ],
                "label": "Mg",
                "properties": {}
            },
            {
                "species": [
                    {
                        "element": "Mg",
                        "occu": 1
                    }
                ],
                "abc": [
                    0.19123363,
                    0.83513084,
                    0.49910252
                ],
                "xyz": [
                    -1.5092320228937712,
                    8.943756564890386,
                    3.141123477105213
                ],
                "label": "Mg",
                "properties": {}
            },
            {
                "species": [
                    {
                        "element": "Mg",
                        "occu": 1
                    }
                ],
                "abc": [
                    0.80876637,
                    0.33513084,
                    0.00089748
                ],
                "xyz": [
                    4.036040232893771,
                    3.589052764890384,
                    0.0053441928947871005
                ],
                "label": "Mg",
                "properties": {}
            },
            {
                "species": [
                    {
                        "element": "Mg",
                        "occu": 1
                    }
                ],
                "abc": [
                    0.19123363,
                    0.66486916,
                    0.99910252
                ],
                "xyz": [
                    -3.978269592893771,
                    7.120354835109616,
                    6.287967357105212
                ],
                "label": "Mg",
                "properties": {}
            },
            {
                "species": [
                    {
                        "element": "Si",
                        "occu": 1
                    }
                ],
                "abc": [
                    0.93622268,
                    0.91319443,
                    0.74864277
                ],
                "xyz": [
                    0.9803698737405524,
                    9.779771368919668,
                    4.711371621827052
                ],
                "label": "Si",
                "properties": {}
            },
            {
                "species": [
                    {
                        "element": "Si",
                        "occu": 1
                    }
                ],
                "abc": [
                    0.93622268,
                    0.58680557,
                    0.24864277
                ],
                "xyz": [
                    3.4494074437405517,
                    6.284340031080332,
                    1.5645277418270527
                ],
                "label": "Si",
                "properties": {}
            },
            {
                "species": [
                    {
                        "element": "Si",
                        "occu": 1
                    }
                ],
                "abc": [
                    0.06377732,
                    0.08680557,
                    0.25135723
                ],
                "xyz": [
                    -0.9225992337405524,
                    0.929636231080332,
                    1.5819399281729474
                ],
                "label": "Si",
                "properties": {}
            },
            {
                "species": [
                    {
                        "element": "Si",
                        "occu": 1
                    }
                ],
                "abc": [
                    0.06377732,
                    0.41319443,
                    0.75135723
                ],
                "xyz": [
                    -3.3916368037405524,
                    4.425067568919668,
                    4.728783808172947
                ],
                "label": "Si",
                "properties": {}
            },
            {
                "species": [
                    {
                        "element": "O",
                        "occu": 1
                    }
                ],
                "abc": [
                    0.25555453,
                    0.83895099,
                    0.96109135
                ],
                "xyz": [
                    -3.4692302824436556,
                    8.984668108333524,
                    6.048712723567145
                ],
                "label": "O",
                "properties": {}
            },
            {
                "species": [
                    {
                        "element": "O",
                        "occu": 1
                    }
                ],
                "abc": [
                    0.74444547,
                    0.16104901,
                    0.03890865
                ],
                "xyz": [
                    3.5270009224436554,
                    1.724739491666476,
                    0.2445988264328553
                ],
                "label": "O",
                "properties": {}
            },
            {
                "species": [
                    {
                        "element": "O",
                        "occu": 1
                    }
                ],
                "abc": [
                    0.25555453,
                    0.66104901,
                    0.46109135
                ],
                "xyz": [
                    -1.0001927124436554,
                    7.079443291666477,
                    2.901868843567145
                ],
                "label": "O",
                "properties": {}
            },
            {
                "species": [
                    {
                        "element": "O",
                        "occu": 1
                    }
                ],
                "abc": [
                    0.39531785,
                    0.40976052,
                    0.75307508
                ],
                "xyz": [
                    -1.7437943184203377,
                    4.388292427067952,
                    4.739470690828672
                ],
                "label": "O",
                "properties": {}
            },
            {
                "species": [
                    {
                        "element": "O",
                        "occu": 1
                    }
                ],
                "abc": [
                    0.74444547,
                    0.33895099,
                    0.53890865
                ],
                "xyz": [
                    1.0579633524436556,
                    3.6299643083335242,
                    3.3914427064328554
                ],
                "label": "O",
                "properties": {}
            },
            {
                "species": [
                    {
                        "element": "O",
                        "occu": 1
                    }
                ],
                "abc": [
                    0.17153097,
                    0.15950152,
                    0.46758126
                ],
                "xyz": [
                    -1.4520091233220693,
                    1.7081667904995521,
                    2.942745921201154
                ],
                "label": "O",
                "properties": {}
            },
            {
                "species": [
                    {
                        "element": "O",
                        "occu": 1
                    }
                ],
                "abc": [
                    0.82846903,
                    0.65950152,
                    0.03241874
                ],
                "xyz": [
                    3.9788173333220698,
                    7.062870590499552,
                    0.2037217487988461
                ],
                "label": "O",
                "properties": {}
            },
            {
                "species": [
                    {
                        "element": "O",
                        "occu": 1
                    }
                ],
                "abc": [
                    0.82846903,
                    0.84049848,
                    0.53241874
                ],
                "xyz": [
                    1.50977976332207,
                    9.001240809500448,
                    3.3505656287988463
                ],
                "label": "O",
                "properties": {}
            },
            {
                "species": [
                    {
                        "element": "O",
                        "occu": 1
                    }
                ],
                "abc": [
                    0.95459806,
                    0.55813287,
                    0.74828942
                ],
                "xyz": [
                    1.073915307220168,
                    5.977272399787812,
                    4.709140834255346
                ],
                "label": "O",
                "properties": {}
            },
            {
                "species": [
                    {
                        "element": "O",
                        "occu": 1
                    }
                ],
                "abc": [
                    0.60468215,
                    0.90976052,
                    0.74692492
                ],
                "xyz": [
                    -0.6674726115796616,
                    9.742996227067952,
                    4.700684739171328
                ],
                "label": "O",
                "properties": {}
            },
            {
                "species": [
                    {
                        "element": "O",
                        "occu": 1
                    }
                ],
                "abc": [
                    0.60468215,
                    0.59023948,
                    0.24692492
                ],
                "xyz": [
                    1.8015649584203384,
                    6.321115172932049,
                    1.5538408591713277
                ],
                "label": "O",
                "properties": {}
            },
            {
                "species": [
                    {
                        "element": "O",
                        "occu": 1
                    }
                ],
                "abc": [
                    0.39531785,
                    0.09023948,
                    0.25307508
                ],
                "xyz": [
                    0.7252432515796619,
                    0.966411372932048,
                    1.5926268108286723
                ],
                "label": "O",
                "properties": {}
            },
            {
                "species": [
                    {
                        "element": "O",
                        "occu": 1
                    }
                ],
                "abc": [
                    0.95459806,
                    0.94186713,
                    0.24828942
                ],
                "xyz": [
                    3.5429528772201677,
                    10.086839000212189,
                    1.5622969542553466
                ],
                "label": "O",
                "properties": {}
            },
            {
                "species": [
                    {
                        "element": "O",
                        "occu": 1
                    }
                ],
                "abc": [
                    0.04540194,
                    0.05813287,
                    0.75171058
                ],
                "xyz": [
                    -3.4851822372201675,
                    0.6225685997878121,
                    4.731014595744653
                ],
                "label": "O",
                "properties": {}
            },
            {
                "species": [
                    {
                        "element": "O",
                        "occu": 1
                    }
                ],
                "abc": [
                    0.04540194,
                    0.44186713,
                    0.25171058
                ],
                "xyz": [
                    -1.016144667220168,
                    4.732135200212189,
                    1.5841707157446536
                ],
                "label": "O",
                "properties": {}
            },
            {
                "species": [
                    {
                        "element": "O",
                        "occu": 1
                    }
                ],
                "abc": [
                    0.17153097,
                    0.34049848,
                    0.96758126
                ],
                "xyz": [
                    -3.921046693322069,
                    3.646537009500448,
                    6.089589801201154
                ],
                "label": "O",
                "properties": {}
            }
        ]
    },
    "spacegroup": {
        "source": "spglib",
        "symbol": "P2_1/c",
        "number": 14,
        "point_group": "2/m",
        "crystal_system": "monoclinic",
        "hall": "-P 2ybc"
    },
    "dielectric": {
        "epsilon_ionic": [
            [
                4.50814735,
                0.0,
                -0.3046299
            ],
            [
                0.0,
                2.86921707,
                0.0
            ],
            [
                -0.3046299,
                0.0,
                2.94508387
            ]
        ],
        "epsilon_ionic_avg": 3.440816096666666,
        "epsilon_ionic_eig": [
            4.565419065287016,
            2.8878121547129836,
            2.86921707
        ],
        "epsilon_electronic": [
            [
                2.70291446,
                0.0,
                0.00591697
            ],
            [
                0.0,
                2.66049744,
                0.0
            ],
            [
                0.00591891,
                0.0,
                2.65256988
            ]
        ],
        "epsilon_electronic_avg": 2.671993926666667,
        "epsilon_electronic_eig": [
            2.7036007507179516,
            2.6518835892820487,
            2.66049744
        ]
    },
    "phonon": {
        "lowest_freq": -0.058695611791691485,
        "frequency": [
            -0.058695611791691485,
            -0.043530922372925086,
            -0.03230613918706189,
            3.0339928280695556,
            3.6793060252274334,
            3.7669657750498615,
            4.2631078752731115,
            4.306341846245238,
            4.485341509116715,
            4.663500621435684,
            5.310221982947439,
            5.54489615019255,
            5.95067568849023,
            6.290789850317525,
            6.442260991917938,
            6.638999258284437,
            6.910604892486377,
            6.9208075294968685,
            7.099157127189812,
            7.456520824490822,
            7.88672560582223,
            7.977887169647838,
            8.39367627727425,
            8.47631902402106,
            8.497932349216558,
            8.830268943842174,
            8.903869508773248,
            9.13062566337624,
            9.175919698220165,
            9.574956580209443,
            9.75800508195606,
            10.258859990398324,
            10.323216106547108,
            10.563677827691512,
            10.61165399318858,
            10.686652427046795,
            11.070829356326776,
            11.081134989019262,
            11.260209252452945,
            11.286746647195358,
            11.601511596807798,
            11.614719210318988,
            11.671926336115511,
            11.976303413872445,
            12.03914979034367,
            12.28208389993869,
            12.355173457408515,
            12.468525072876185,
            13.007143048509704,
            13.053880777369493,
            13.283186855634833,
            13.284862844246991,
            13.648570647026764,
            13.870989273426037,
            13.947914531307054,
            13.964299467877915,
            14.13579387897047,
            14.44126602685926,
            14.480953064330917,
            14.630513381458035,
            14.818771341817609,
            15.243678674021137,
            15.266953135104083,
            15.443650440018663,
            15.466048179084678,
            15.5469410885617,
            16.109736772761863,
            16.167564044449243,
            16.230859968408964,
            16.382538100860614,
            16.529712612107573,
            16.6190463058285,
            16.790825946850337,
            17.01274752223736,
            17.01730594021301,
            17.496623070257574,
            17.669799602641017,
            17.940293289384872,
            18.272382006730464,
            19.37770920553326,
            24.60085729888546,
            24.674924070373688,
            24.810371557455166,
            25.182472007453388,
            25.80710975280133,
            25.84478176621889,
            26.287368026690913,
            26.322865675737862,
            26.44300974949583,
            26.516534857062403,
            26.906555505715886,
            27.02427000375711,
            27.10017335990889,
            27.43725628175479,
            27.665379098905337,
            30.19771679243788
        ]
    },
    "born_effective_charge": {
        "avg_abs_trace": 1.6793712500000002,
        "tensors": [
            [
                [
                    1.02483,
                    0.02496,
                    -0.03358
                ],
                [
                    -0.02719,
                    1.03748,
                    0.03005
                ],
                [
                    0.01329,
                    -0.04097,
                    0.98113
                ]
            ],
            [
                [
                    1.02483,
                    -0.02496,
                    -0.03358
                ],
                [
                    0.02719,
                    1.03748,
                    -0.03005
                ],
                [
                    0.01329,
                    0.04098,
                    0.98113
                ]
            ],
            [
                [
                    1.02483,
                    0.02496,
                    -0.03358
                ],
                [
                    -0.0272,
                    1.03749,
                    0.03004
                ],
                [
                    0.01329,
                    -0.04098,
                    0.98113
                ]
            ],
            [
                [
                    1.02483,
                    -0.02496,
                    -0.03358
                ],
                [
                    0.0272,
                    1.03749,
                    -0.03004
                ],
                [
                    0.01329,
                    0.04097,
                    0.98113
                ]
            ],
            [
                [
                    1.0598,
                    -0.06164,
                    0.00851
                ],
                [
                    -0.01145,
                    0.92712,
                    0.02571
                ],
                [
                    0.00906,
                    0.03373,
                    1.11217
                ]
            ],
            [
                [
                    1.05981,
                    0.06164,
                    0.00851
                ],
                [
                    0.01145,
                    0.92712,
                    -0.02571
                ],
                [
                    0.00905,
                    -0.03373,
                    1.11216
                ]
            ],
            [
                [
                    1.05981,
                    -0.06164,
                    0.00851
                ],
                [
                    -0.01145,
                    0.92712,
                    0.02571
                ],
                [
                    0.00905,
                    0.03373,
                    1.11216
                ]
            ],
            [
                [
                    1.0598,
                    0.06164,
                    0.00851
                ],
                [
                    0.01145,
                    0.92712,
                    -0.02571
                ],
                [
                    0.00906,
                    -0.03373,
                    1.11217
                ]
            ],
            [
                [
                    1.98099,
                    0.0612,
                    0.0488
                ],
                [
                    -0.05013,
                    1.97951,
                    -0.04174
                ],
                [
                    -0.03758,
                    0.1228,
                    1.77538
                ]
            ],
            [
                [
                    1.98099,
                    0.06121,
                    0.04879
                ],
                [
                    -0.05014,
                    1.97952,
                    -0.04174
                ],
                [
                    -0.03757,
                    0.12278,
                    1.77538
                ]
            ],
            [
                [
                    1.98099,
                    -0.0612,
                    0.0488
                ],
                [
                    0.05014,
                    1.97952,
                    0.04174
                ],
                [
                    -0.03758,
                    -0.1228,
                    1.77538
                ]
            ],
            [
                [
                    1.98099,
                    -0.06121,
                    0.04879
                ],
                [
                    0.05013,
                    1.97951,
                    0.04174
                ],
                [
                    -0.03757,
                    -0.12278,
                    1.77538
                ]
            ],
            [
                [
                    2.77135,
                    -0.01307,
                    -0.03931
                ],
                [
                    0.03087,
                    2.72327,
                    -0.07966
                ],
                [
                    0.04554,
                    -0.05779,
                    2.77943
                ]
            ],
            [
                [
                    2.77135,
                    0.01307,
                    -0.03931
                ],
                [
                    -0.03087,
                    2.72325,
                    0.07965
                ],
                [
                    0.04554,
                    0.05779,
                    2.77943
                ]
            ],
            [
                [
                    2.77134,
                    -0.01308,
                    -0.0393
                ],
                [
                    0.03087,
                    2.72325,
                    -0.07965
                ],
                [
                    0.04555,
                    -0.05778,
                    2.77942
                ]
            ],
            [
                [
                    2.77134,
                    0.01308,
                    -0.0393
                ],
                [
                    -0.03087,
                    2.72327,
                    0.07966
                ],
                [
                    0.04555,
                    0.05778,
                    2.77942
                ]
            ],
            [
                [
                    -1.48678,
                    0.10299,
                    -0.2142
                ],
                [
                    0.07634,
                    -1.67712,
                    0.32515
                ],
                [
                    -0.22838,
                    0.35458,
                    -1.88935
                ]
            ],
            [
                [
                    -1.48675,
                    0.10295,
                    -0.21416
                ],
                [
                    0.0764,
                    -1.67716,
                    0.32527
                ],
                [
                    -0.22842,
                    0.35455,
                    -1.88941
                ]
            ],
            [
                [
                    -1.48678,
                    -0.10299,
                    -0.2142
                ],
                [
                    -0.0764,
                    -1.67716,
                    -0.32527
                ],
                [
                    -0.22838,
                    -0.35458,
                    -1.88935
                ]
            ],
            [
                [
                    -2.22687,
                    0.02626,
                    -0.05978
                ],
                [
                    0.01347,
                    -1.3235,
                    -0.00586
                ],
                [
                    -0.069,
                    0.01361,
                    -1.44012
                ]
            ],
            [
                [
                    -1.48675,
                    -0.10295,
                    -0.21416
                ],
                [
                    -0.07634,
                    -1.67712,
                    -0.32515
                ],
                [
                    -0.22842,
                    -0.35455,
                    -1.88941
                ]
            ],
            [
                [
                    -1.64411,
                    0.12615,
                    0.26947
                ],
                [
                    0.08465,
                    -1.57505,
                    -0.22607
                ],
                [
                    0.2584,
                    -0.28884,
                    -1.84537
                ]
            ],
            [
                [
                    -1.64413,
                    -0.12618,
                    0.26955
                ],
                [
                    -0.08465,
                    -1.57505,
                    0.22607
                ],
                [
                    0.2584,
                    0.28881,
                    -1.84541
                ]
            ],
            [
                [
                    -1.64413,
                    0.12618,
                    0.26955
                ],
                [
                    0.08468,
                    -1.57506,
                    -0.22619
                ],
                [
                    0.2584,
                    -0.28881,
                    -1.84541
                ]
            ],
            [
                [
                    -1.47918,
                    0.25446,
                    0.02003
                ],
                [
                    0.24742,
                    -2.0916,
                    -0.04978
                ],
                [
                    0.00857,
                    -0.03378,
                    -1.47325
                ]
            ],
            [
                [
                    -2.22692,
                    -0.02622,
                    -0.0598
                ],
                [
                    -0.01347,
                    -1.3235,
                    0.00586
                ],
                [
                    -0.06884,
                    -0.01361,
                    -1.44009
                ]
            ],
            [
                [
                    -2.22692,
                    0.02622,
                    -0.0598
                ],
                [
                    0.01359,
                    -1.32348,
                    -0.00588
                ],
                [
                    -0.06884,
                    0.01361,
                    -1.44009
                ]
            ],
            [
                [
                    -2.22687,
                    -0.02626,
                    -0.05978
                ],
                [
                    -0.01359,
                    -1.32348,
                    0.00588
                ],
                [
                    -0.069,
                    -0.01361,
                    -1.44012
                ]
            ],
            [
                [
                    -1.47918,
                    -0.25446,
                    0.02003
                ],
                [
                    -0.24752,
                    -2.09181,
                    0.04975
                ],
                [
                    0.00857,
                    0.03378,
                    -1.47325
                ]
            ],
            [
                [
                    -1.47919,
                    -0.25437,
                    0.02004
                ],
                [
                    -0.24742,
                    -2.0916,
                    0.04978
                ],
                [
                    0.00865,
                    0.03388,
                    -1.47321
                ]
            ],
            [
                [
                    -1.47919,
                    0.25437,
                    0.02004
                ],
                [
                    0.24752,
                    -2.09181,
                    -0.04975
                ],
                [
                    0.00865,
                    -0.03388,
                    -1.47321
                ]
            ],
            [
                [
                    -1.64411,
                    -0.12615,
                    0.26947
                ],
                [
                    -0.08468,
                    -1.57506,
                    0.22619
                ],
                [
                    0.2584,
                    0.28884,
                    -1.84537
                ]
            ]
        ]
    },
    "band_gap": 4.7379,
    "is_direct": true,
    "formula": "Li2MgSiO4"
}