{
    "mp_id": "mp-12885",
    "nelements": 4,
    "nsites": 12,
    "elements": [
        "Al",
        "Ba",
        "O",
        "Sb"
    ],
    "structure": {
        "@module": "pymatgen.core.structure",
        "@class": "Structure",
        "charge": null,
        "lattice": {
            "matrix": [
                [
                    2.7226507,
                    1.57192254,
                    8.03524093
                ],
                [
                    -2.7226507,
                    1.57192254,
                    8.03524093
                ],
                [
                    0.0,
                    -3.14384607,
                    8.03524093
                ]
            ],
            "a": 8.628375519709246,
            "b": 8.628375519709246,
            "c": 8.628375566408877,
            "alpha": 36.78757080905745,
            "beta": 36.78757080905745,
            "gamma": 36.78757535844638,
            "volume": 206.33519545117235
        },
        "sites": [
            {
                "species": [
                    {
                        "element": "Ba",
                        "occu": 1
                    }
                ],
                "abc": [
                    0.5,
                    0.5,
                    0.5
                ],
                "xyz": [
                    0.0,
                    -4.949999998782317e-07,
                    12.052861395
                ],
                "label": "Ba",
                "properties": {}
            },
            {
                "species": [
                    {
                        "element": "Al",
                        "occu": 1
                    }
                ],
                "abc": [
                    0.92849413,
                    0.92849413,
                    0.92849413
                ],
                "xyz": [
                    0.0,
                    -9.192091883214459e-07,
                    22.382022109922225
                ],
                "label": "Al",
                "properties": {}
            },
            {
                "species": [
                    {
                        "element": "Al",
                        "occu": 1
                    }
                ],
                "abc": [
                    0.07150587,
                    0.07150587,
                    0.07150587
                ],
                "xyz": [
                    0.0,
                    -7.079081129623965e-08,
                    1.7237006800777774
                ],
                "label": "Al",
                "properties": {}
            },
            {
                "species": [
                    {
                        "element": "Sb",
                        "occu": 1
                    }
                ],
                "abc": [
                    0.71998262,
                    0.71998262,
                    0.71998262
                ],
                "xyz": [
                    0.0,
                    -7.127827936770359e-07,
                    17.35570145133791
                ],
                "label": "Sb",
                "properties": {}
            },
            {
                "species": [
                    {
                        "element": "Sb",
                        "occu": 1
                    }
                ],
                "abc": [
                    0.28001738,
                    0.28001738,
                    0.28001738
                ],
                "xyz": [
                    0.0,
                    -2.7721720619044987e-07,
                    6.750021338662091
                ],
                "label": "Sb",
                "properties": {}
            },
            {
                "species": [
                    {
                        "element": "O",
                        "occu": 1
                    }
                ],
                "abc": [
                    0.56879021,
                    0.97267836,
                    0.16569658
                ],
                "xyz": [
                    -1.0996463543192052,
                    1.902144648039127,
                    13.717483287549591
                ],
                "label": "O",
                "properties": {}
            },
            {
                "species": [
                    {
                        "element": "O",
                        "occu": 1
                    }
                ],
                "abc": [
                    0.97267836,
                    0.16569658,
                    0.56879021
                ],
                "xyz": [
                    2.197129508204246,
                    0.00124836079417312,
                    13.71748328754959
                ],
                "label": "O",
                "properties": {}
            },
            {
                "species": [
                    {
                        "element": "O",
                        "occu": 1
                    }
                ],
                "abc": [
                    0.16569658,
                    0.56879021,
                    0.97267836
                ],
                "xyz": [
                    -1.0974831538850407,
                    -1.9033946989267985,
                    13.717483287549591
                ],
                "label": "O",
                "properties": {}
            },
            {
                "species": [
                    {
                        "element": "O",
                        "occu": 1
                    }
                ],
                "abc": [
                    0.83430342,
                    0.02732164,
                    0.43120979
                ],
                "xyz": [
                    2.197129508204246,
                    -0.0012493507941726545,
                    10.38823950245041
                ],
                "label": "O",
                "properties": {}
            },
            {
                "species": [
                    {
                        "element": "O",
                        "occu": 1
                    }
                ],
                "abc": [
                    0.02732164,
                    0.43120979,
                    0.83430342
                ],
                "xyz": [
                    -1.099646354319205,
                    -1.9021456380391273,
                    10.38823950245041
                ],
                "label": "O",
                "properties": {}
            },
            {
                "species": [
                    {
                        "element": "O",
                        "occu": 1
                    }
                ],
                "abc": [
                    0.0,
                    0.0,
                    0.0
                ],
                "xyz": [
                    0.0,
                    0.0,
                    0.0
                ],
                "label": "O",
                "properties": {}
            },
            {
                "species": [
                    {
                        "element": "O",
                        "occu": 1
                    }
                ],
                "abc": [
                    0.43120979,
                    0.83430342,
                    0.02732164
                ],
                "xyz": [
                    -1.0974831538850411,
                    1.9033937089267985,
                    10.38823950245041
                ],
                "label": "O",
                "properties": {}
            }
        ]
    },
    "spacegroup": {
        "source": "spglib",
        "symbol": "R32",
        "number": 155,
        "point_group": "32",
        "crystal_system": "trigonal",
        "hall": "R 3 2\""
    },
    "dielectric": {
        "epsilon_ionic": [
            [
                6.65568406,
                -1.075e-05,
                -0.0
            ],
            [
                -1.075e-05,
                6.65558303,
                1.347e-05
            ],
            [
                -0.0,
                1.347e-05,
                3.40456646
            ]
        ],
        "epsilon_ionic_avg": 5.571944516666665,
        "epsilon_ionic_eig": [
            6.655685191178832,
            6.655581898876976,
            3.4045664599441894
        ],
        "epsilon_electronic": [
            [
                3.65452566,
                0.0,
                0.0
            ],
            [
                0.0,
                3.65452432,
                -0.0
            ],
            [
                0.0,
                -0.0,
                3.19750051
            ]
        ],
        "epsilon_electronic_avg": 3.502183496666667,
        "epsilon_electronic_eig": [
            3.65452566,
            3.65452432,
            3.19750051
        ]
    },
    "phonon": {
        "lowest_freq": -0.015595309966153643,
        "frequency": [
            -0.015595309966153643,
            -0.01116667403361504,
            -0.011166671987221072,
            1.3164193435308311,
            1.3164195440384605,
            2.326529572826263,
            2.3265298196919315,
            2.968989489261408,
            2.9689899461241316,
            3.3823656807114957,
            3.5715527042587647,
            5.903035366649961,
            6.337127416291523,
            6.3371276476898615,
            6.442253556259329,
            6.746562536057421,
            7.169483362623015,
            7.169483413756434,
            10.291314375571089,
            10.291314755542187,
            10.855671162615373,
            10.85567192807741,
            12.762916496209474,
            16.160562667359564,
            16.309701534537453,
            16.309701909161305,
            16.598072498234114,
            16.598072866349337,
            19.86729508237586,
            21.29620340491063,
            21.296205241107373,
            21.337596270533663,
            21.337598103168364,
            22.589223944906397,
            22.904577293105728,
            29.335980845458042
        ]
    },
    "born_effective_charge": {
        "avg_abs_trace": 2.1904416666666666,
        "tensors": [
            [
                [
                    2.58613,
                    0.0,
                    -0.0
                ],
                [
                    -0.0,
                    2.58608,
                    1e-05
                ],
                [
                    -0.0,
                    -0.0,
                    3.20653
                ]
            ],
            [
                [
                    2.82899,
                    0.30715,
                    0.00011
                ],
                [
                    -0.30713,
                    2.829,
                    2e-05
                ],
                [
                    -0.0,
                    -0.0,
                    2.04547
                ]
            ],
            [
                [
                    2.82899,
                    -0.30715,
                    -0.00011
                ],
                [
                    0.30714,
                    2.82901,
                    -1e-05
                ],
                [
                    -0.0,
                    -0.0,
                    2.04554
                ]
            ],
            [
                [
                    2.85201,
                    0.01735,
                    -0.00022
                ],
                [
                    -0.01717,
                    2.85201,
                    -1e-05
                ],
                [
                    -0.0,
                    -0.0,
                    2.11721
                ]
            ],
            [
                [
                    2.85201,
                    -0.01735,
                    0.00022
                ],
                [
                    0.01712,
                    2.85202,
                    2e-05
                ],
                [
                    -0.0,
                    -0.0,
                    2.11695
                ]
            ],
            [
                [
                    -2.50334,
                    -0.51374,
                    0.72669
                ],
                [
                    -0.3743,
                    -1.53782,
                    -0.07231
                ],
                [
                    0.39085,
                    -0.20504,
                    -1.5547
                ]
            ],
            [
                [
                    -1.39465,
                    -0.26575,
                    -0.42606
                ],
                [
                    -0.12627,
                    -2.64647,
                    -0.59322
                ],
                [
                    -0.37299,
                    -0.23597,
                    -1.5547
                ]
            ],
            [
                [
                    -2.16366,
                    0.57033,
                    -0.30069
                ],
                [
                    0.70984,
                    -1.8773,
                    0.66551
                ],
                [
                    -0.01786,
                    0.441,
                    -1.5547
                ]
            ],
            [
                [
                    -1.39465,
                    0.26575,
                    0.42606
                ],
                [
                    0.12626,
                    -2.64653,
                    -0.59319
                ],
                [
                    0.37301,
                    -0.23594,
                    -1.55478
                ]
            ],
            [
                [
                    -2.50334,
                    0.51374,
                    -0.72669
                ],
                [
                    0.37436,
                    -1.53777,
                    -0.07233
                ],
                [
                    -0.39083,
                    -0.20507,
                    -1.55478
                ]
            ],
            [
                [
                    -1.82484,
                    0.0,
                    -0.0
                ],
                [
                    -0.0,
                    -1.82486,
                    0.0
                ],
                [
                    -0.0,
                    -0.0,
                    -2.20326
                ]
            ],
            [
                [
                    -2.16366,
                    -0.57033,
                    0.30069
                ],
                [
                    -0.70986,
                    -1.87736,
                    0.66552
                ],
                [
                    0.01782,
                    0.44101,
                    -1.55478
                ]
            ]
        ]
    },
    "band_gap": 3.2695,
    "is_direct": false,
    "formula": "BaAl2Sb2O7"
}