{
    "mp_id": "mp-15349",
    "nelements": 3,
    "nsites": 12,
    "elements": [
        "Ge",
        "Li",
        "O"
    ],
    "structure": {
        "@module": "pymatgen.core.structure",
        "@class": "Structure",
        "charge": null,
        "lattice": {
            "matrix": [
                [
                    4.8318295,
                    -2.74392405,
                    0.0
                ],
                [
                    4.8318295,
                    2.74392405,
                    0.0
                ],
                [
                    0.0,
                    0.0,
                    4.88195632
                ]
            ],
            "a": 5.556590277250848,
            "b": 5.556590277250848,
            "c": 4.88195632,
            "alpha": 90.0,
            "beta": 90.0,
            "gamma": 59.18319597559788,
            "volume": 129.4516446032369
        },
        "sites": [
            {
                "species": [
                    {
                        "element": "Li",
                        "occu": 1
                    }
                ],
                "abc": [
                    0.51712946,
                    0.83363538,
                    0.48880429
                ],
                "xyz": [
                    6.526665401474781,
                    0.8684682058553759,
                    2.3863211928086123
                ],
                "label": "Li",
                "properties": {}
            },
            {
                "species": [
                    {
                        "element": "Li",
                        "occu": 1
                    }
                ],
                "abc": [
                    0.48287054,
                    0.16636462,
                    0.98880429
                ],
                "xyz": [
                    3.1369935985252204,
                    -0.868468205855376,
                    4.8272993528086126
                ],
                "label": "Li",
                "properties": {}
            },
            {
                "species": [
                    {
                        "element": "Li",
                        "occu": 1
                    }
                ],
                "abc": [
                    0.83363538,
                    0.51712946,
                    0.98880429
                ],
                "xyz": [
                    6.526665401474781,
                    -0.8684682058553759,
                    4.8272993528086126
                ],
                "label": "Li",
                "properties": {}
            },
            {
                "species": [
                    {
                        "element": "Li",
                        "occu": 1
                    }
                ],
                "abc": [
                    0.16636462,
                    0.48287054,
                    0.48880429
                ],
                "xyz": [
                    3.1369935985252204,
                    0.868468205855376,
                    2.3863211928086123
                ],
                "label": "Li",
                "properties": {}
            },
            {
                "species": [
                    {
                        "element": "Ge",
                        "occu": 1
                    }
                ],
                "abc": [
                    0.17989256,
                    0.82010744,
                    0.99765689
                ],
                "xyz": [
                    4.8318295,
                    1.7567010063998638,
                    4.870517359327044
                ],
                "label": "Ge",
                "properties": {}
            },
            {
                "species": [
                    {
                        "element": "Ge",
                        "occu": 1
                    }
                ],
                "abc": [
                    0.82010744,
                    0.17989256,
                    0.49765689
                ],
                "xyz": [
                    4.8318295,
                    -1.7567010063998638,
                    2.4295391993270448
                ],
                "label": "Ge",
                "properties": {}
            },
            {
                "species": [
                    {
                        "element": "O",
                        "occu": 1
                    }
                ],
                "abc": [
                    0.13873476,
                    0.86126524,
                    0.62170368
                ],
                "xyz": [
                    4.8318295,
                    1.9825687609300442,
                    3.035130209743257
                ],
                "label": "O",
                "properties": {}
            },
            {
                "species": [
                    {
                        "element": "O",
                        "occu": 1
                    }
                ],
                "abc": [
                    0.16510912,
                    0.5249362,
                    0.09246492
                ],
                "xyz": [
                    3.33418133351294,
                    0.987338178653274,
                    0.4514097005722944
                ],
                "label": "O",
                "properties": {}
            },
            {
                "species": [
                    {
                        "element": "O",
                        "occu": 1
                    }
                ],
                "abc": [
                    0.4750638,
                    0.83489088,
                    0.09246492
                ],
                "xyz": [
                    6.329477666487061,
                    0.987338178653274,
                    0.4514097005722944
                ],
                "label": "O",
                "properties": {}
            },
            {
                "species": [
                    {
                        "element": "O",
                        "occu": 1
                    }
                ],
                "abc": [
                    0.86126524,
                    0.13873476,
                    0.12170368
                ],
                "xyz": [
                    4.8318295,
                    -1.9825687609300442,
                    0.5941520497432575
                ],
                "label": "O",
                "properties": {}
            },
            {
                "species": [
                    {
                        "element": "O",
                        "occu": 1
                    }
                ],
                "abc": [
                    0.5249362,
                    0.16510912,
                    0.59246492
                ],
                "xyz": [
                    3.33418133351294,
                    -0.987338178653274,
                    2.8923878605722937
                ],
                "label": "O",
                "properties": {}
            },
            {
                "species": [
                    {
                        "element": "O",
                        "occu": 1
                    }
                ],
                "abc": [
                    0.83489088,
                    0.4750638,
                    0.59246492
                ],
                "xyz": [
                    6.329477666487061,
                    -0.987338178653274,
                    2.8923878605722937
                ],
                "label": "O",
                "properties": {}
            }
        ]
    },
    "spacegroup": {
        "source": "spglib",
        "symbol": "Cmc2_1",
        "number": 36,
        "point_group": "mm2",
        "crystal_system": "orthorhombic",
        "hall": "C 2c -2"
    },
    "dielectric": {
        "epsilon_ionic": [
            [
                2.96737984,
                0.0,
                2.7e-06
            ],
            [
                0.0,
                3.2585895,
                3.19e-06
            ],
            [
                2.7e-06,
                3.19e-06,
                4.70393618
            ]
        ],
        "epsilon_ionic_avg": 3.6433018399999995,
        "epsilon_ionic_eig": [
            2.967379839995802,
            4.703936180011238,
            3.258589499992959
        ],
        "epsilon_electronic": [
            [
                3.01282955,
                0.0,
                0.0
            ],
            [
                0.0,
                3.02322436,
                0.0
            ],
            [
                0.0,
                0.0,
                3.18207855
            ]
        ],
        "epsilon_electronic_avg": 3.0727108199999997,
        "epsilon_electronic_eig": [
            3.01282955,
            3.02322436,
            3.18207855
        ]
    },
    "phonon": {
        "lowest_freq": -0.03423293776642298,
        "frequency": [
            -0.03423293776642298,
            -0.012118898079096047,
            -0.008803891238313632,
            4.403012363510312,
            4.863704855832142,
            7.192211373232347,
            7.234202806433248,
            7.507777536323341,
            7.590746622734247,
            8.113870928818077,
            8.431762397379766,
            8.707709892086976,
            9.263024346996783,
            10.141846156441469,
            10.699901185939552,
            10.87079426387623,
            10.943809432169019,
            11.263727087835306,
            11.403848432174284,
            11.502449468462375,
            12.813372512838086,
            13.276327515384084,
            13.466746366933364,
            14.427774513454164,
            14.570666752845465,
            14.624339103764395,
            14.67177520224404,
            14.67715877907393,
            14.768879640002417,
            16.56736640281169,
            19.7025010366623,
            20.92410717357984,
            23.234436381024775,
            23.73264034620916,
            23.738391012478328,
            23.742816817435827
        ]
    },
    "born_effective_charge": {
        "avg_abs_trace": 1.711760555555556,
        "tensors": [
            [
                [
                    1.07162,
                    0.14912,
                    0.07304
                ],
                [
                    -0.09681,
                    1.02745,
                    -0.06497
                ],
                [
                    -0.05047,
                    0.0387,
                    1.02157
                ]
            ],
            [
                [
                    1.07162,
                    0.14912,
                    -0.07303
                ],
                [
                    -0.09681,
                    1.02745,
                    0.06497
                ],
                [
                    0.05047,
                    -0.0387,
                    1.02157
                ]
            ],
            [
                [
                    1.07162,
                    -0.14912,
                    0.07304
                ],
                [
                    0.09681,
                    1.02745,
                    0.06497
                ],
                [
                    -0.05047,
                    -0.0387,
                    1.02157
                ]
            ],
            [
                [
                    1.07162,
                    -0.14912,
                    -0.07303
                ],
                [
                    0.09681,
                    1.02745,
                    -0.06497
                ],
                [
                    0.05047,
                    0.0387,
                    1.02157
                ]
            ],
            [
                [
                    2.7644,
                    -0.0,
                    0.0
                ],
                [
                    0.0,
                    3.01922,
                    -0.32977
                ],
                [
                    0.0,
                    0.372,
                    3.38094
                ]
            ],
            [
                [
                    2.7644,
                    0.0,
                    0.0
                ],
                [
                    0.0,
                    3.01922,
                    0.32977
                ],
                [
                    0.0,
                    -0.372,
                    3.38094
                ]
            ],
            [
                [
                    -1.15971,
                    -0.0,
                    -0.0
                ],
                [
                    0.0,
                    -1.92454,
                    0.51793
                ],
                [
                    0.0,
                    0.57702,
                    -2.43596
                ]
            ],
            [
                [
                    -1.87397,
                    -0.16273,
                    0.11724
                ],
                [
                    -0.32036,
                    -1.57479,
                    0.11933
                ],
                [
                    0.07479,
                    0.0158,
                    -1.49406
                ]
            ],
            [
                [
                    -1.87397,
                    0.16274,
                    -0.11724
                ],
                [
                    0.32036,
                    -1.57479,
                    0.11933
                ],
                [
                    -0.07479,
                    0.0158,
                    -1.49406
                ]
            ],
            [
                [
                    -1.15971,
                    0.0,
                    -0.0
                ],
                [
                    0.0,
                    -1.92454,
                    -0.51794
                ],
                [
                    0.0,
                    -0.57702,
                    -2.43596
                ]
            ],
            [
                [
                    -1.87397,
                    0.16273,
                    0.11724
                ],
                [
                    0.32036,
                    -1.57479,
                    -0.11933
                ],
                [
                    0.07479,
                    -0.0158,
                    -1.49406
                ]
            ],
            [
                [
                    -1.87397,
                    -0.16274,
                    -0.11724
                ],
                [
                    -0.32036,
                    -1.57479,
                    -0.11933
                ],
                [
                    -0.07479,
                    -0.0158,
                    -1.49406
                ]
            ]
        ]
    },
    "band_gap": 3.4574,
    "is_direct": false,
    "formula": "Li2GeO3"
}