{
    "mp_id": "mp-10299",
    "nelements": 3,
    "nsites": 22,
    "elements": [
        "Ca",
        "O",
        "Pd"
    ],
    "structure": {
        "@module": "pymatgen.core.structure",
        "@class": "Structure",
        "charge": null,
        "lattice": {
            "matrix": [
                [
                    4.5994017,
                    2.65546563,
                    3.70117087
                ],
                [
                    -4.5994017,
                    2.65546563,
                    3.70117087
                ],
                [
                    0.0,
                    -5.31093225,
                    3.70117087
                ]
            ],
            "a": 6.473380841493164,
            "b": 6.473380841493164,
            "c": 6.473381432684668,
            "alpha": 90.55284755318523,
            "beta": 90.55284755318523,
            "gamma": 90.55284792188405,
            "volume": 271.22671615430136
        },
        "sites": [
            {
                "species": [
                    {
                        "element": "Ca",
                        "occu": 1
                    }
                ],
                "abc": [
                    0.25,
                    0.25,
                    0.25
                ],
                "xyz": [
                    0.0,
                    -2.4749999982809356e-07,
                    2.7758781525
                ],
                "label": "Ca",
                "properties": {}
            },
            {
                "species": [
                    {
                        "element": "Ca",
                        "occu": 1
                    }
                ],
                "abc": [
                    0.75,
                    0.75,
                    0.75
                ],
                "xyz": [
                    0.0,
                    -7.424999992622361e-07,
                    8.3276344575
                ],
                "label": "Ca",
                "properties": {}
            },
            {
                "species": [
                    {
                        "element": "Ca",
                        "occu": 1
                    }
                ],
                "abc": [
                    0.11684525,
                    0.75,
                    0.38315475
                ],
                "xyz": [
                    -2.912133033513075,
                    0.2669688493880704,
                    4.6264635875
                ],
                "label": "Ca",
                "properties": {}
            },
            {
                "species": [
                    {
                        "element": "Ca",
                        "occu": 1
                    }
                ],
                "abc": [
                    0.75,
                    0.38315475,
                    0.11684525
                ],
                "xyz": [
                    1.687268666486925,
                    2.38849628561193,
                    4.6264635875
                ],
                "label": "Ca",
                "properties": {}
            },
            {
                "species": [
                    {
                        "element": "Ca",
                        "occu": 1
                    }
                ],
                "abc": [
                    0.38315475,
                    0.11684525,
                    0.75
                ],
                "xyz": [
                    1.2248643670261496,
                    -2.6554663724999994,
                    4.6264635875
                ],
                "label": "Ca",
                "properties": {}
            },
            {
                "species": [
                    {
                        "element": "Ca",
                        "occu": 1
                    }
                ],
                "abc": [
                    0.88315475,
                    0.25,
                    0.61684525
                ],
                "xyz": [
                    2.9121330335130744,
                    -0.26696983938806973,
                    6.477049022499999
                ],
                "label": "Ca",
                "properties": {}
            },
            {
                "species": [
                    {
                        "element": "Ca",
                        "occu": 1
                    }
                ],
                "abc": [
                    0.25,
                    0.61684525,
                    0.88315475
                ],
                "xyz": [
                    -1.6872686664869248,
                    -2.38849727561193,
                    6.4770490225
                ],
                "label": "Ca",
                "properties": {}
            },
            {
                "species": [
                    {
                        "element": "Ca",
                        "occu": 1
                    }
                ],
                "abc": [
                    0.61684525,
                    0.88315475,
                    0.25
                ],
                "xyz": [
                    -1.2248643670261496,
                    2.6554653825,
                    6.477049022499999
                ],
                "label": "Ca",
                "properties": {}
            },
            {
                "species": [
                    {
                        "element": "Pd",
                        "occu": 1
                    }
                ],
                "abc": [
                    0.0,
                    0.0,
                    0.0
                ],
                "xyz": [
                    0.0,
                    0.0,
                    0.0
                ],
                "label": "Pd",
                "properties": {}
            },
            {
                "species": [
                    {
                        "element": "Pd",
                        "occu": 1
                    }
                ],
                "abc": [
                    0.5,
                    0.5,
                    0.5
                ],
                "xyz": [
                    0.0,
                    -4.949999996561871e-07,
                    5.551756305
                ],
                "label": "Pd",
                "properties": {}
            },
            {
                "species": [
                    {
                        "element": "O",
                        "occu": 1
                    }
                ],
                "abc": [
                    0.79517223,
                    0.57119609,
                    0.44513122
                ],
                "xyz": [
                    1.030156239075438,
                    1.2642823599009971,
                    6.704669328466399
                ],
                "label": "O",
                "properties": {}
            },
            {
                "species": [
                    {
                        "element": "O",
                        "occu": 1
                    }
                ],
                "abc": [
                    0.57119609,
                    0.44513122,
                    0.79517223
                ],
                "xyz": [
                    0.5798229773882788,
                    -1.5242836000760618,
                    6.7046693284664
                ],
                "label": "O",
                "properties": {}
            },
            {
                "species": [
                    {
                        "element": "O",
                        "occu": 1
                    }
                ],
                "abc": [
                    0.44513122,
                    0.79517223,
                    0.57119609
                ],
                "xyz": [
                    -1.6099792164637168,
                    0.2599994467905211,
                    6.7046693284664
                ],
                "label": "O",
                "properties": {}
            },
            {
                "species": [
                    {
                        "element": "O",
                        "occu": 1
                    }
                ],
                "abc": [
                    0.05486878,
                    0.92880391,
                    0.70482777
                ],
                "xyz": [
                    -4.01957872261172,
                    -1.1311835149239373,
                    6.2494287165335995
                ],
                "label": "O",
                "properties": {}
            },
            {
                "species": [
                    {
                        "element": "O",
                        "occu": 1
                    }
                ],
                "abc": [
                    0.92880391,
                    0.70482777,
                    0.05486878
                ],
                "xyz": [
                    1.0301562390754375,
                    4.0466484050990035,
                    6.2494287165335995
                ],
                "label": "O",
                "properties": {}
            },
            {
                "species": [
                    {
                        "element": "O",
                        "occu": 1
                    }
                ],
                "abc": [
                    0.70482777,
                    0.05486878,
                    0.92880391
                ],
                "xyz": [
                    2.989422483536283,
                    -2.91546656179052,
                    6.2494287165335995
                ],
                "label": "O",
                "properties": {}
            },
            {
                "species": [
                    {
                        "element": "O",
                        "occu": 1
                    }
                ],
                "abc": [
                    0.20482777,
                    0.42880391,
                    0.55486878
                ],
                "xyz": [
                    -1.030156239075438,
                    -1.264283349900996,
                    4.398843281533599
                ],
                "label": "O",
                "properties": {}
            },
            {
                "species": [
                    {
                        "element": "O",
                        "occu": 1
                    }
                ],
                "abc": [
                    0.42880391,
                    0.55486878,
                    0.20482777
                ],
                "xyz": [
                    -0.5798229773882788,
                    1.524282610076062,
                    4.3988432815336
                ],
                "label": "O",
                "properties": {}
            },
            {
                "species": [
                    {
                        "element": "O",
                        "occu": 1
                    }
                ],
                "abc": [
                    0.55486878,
                    0.20482777,
                    0.42880391
                ],
                "xyz": [
                    1.6099792164637168,
                    -0.2600004367905213,
                    4.398843281533599
                ],
                "label": "O",
                "properties": {}
            },
            {
                "species": [
                    {
                        "element": "O",
                        "occu": 1
                    }
                ],
                "abc": [
                    0.94513122,
                    0.07119609,
                    0.29517223
                ],
                "xyz": [
                    4.019578722611722,
                    1.1311825249239382,
                    4.8540838934664
                ],
                "label": "O",
                "properties": {}
            },
            {
                "species": [
                    {
                        "element": "O",
                        "occu": 1
                    }
                ],
                "abc": [
                    0.29517223,
                    0.94513122,
                    0.07119609
                ],
                "xyz": [
                    -2.9894224835362833,
                    2.915465571790521,
                    4.854083893466401
                ],
                "label": "O",
                "properties": {}
            },
            {
                "species": [
                    {
                        "element": "O",
                        "occu": 1
                    }
                ],
                "abc": [
                    0.07119609,
                    0.29517223,
                    0.94513122
                ],
                "xyz": [
                    -1.0301562390754377,
                    -4.046649395099004,
                    4.8540838934664
                ],
                "label": "O",
                "properties": {}
            }
        ]
    },
    "spacegroup": {
        "source": "spglib",
        "symbol": "R-3c",
        "number": 167,
        "point_group": "-3m",
        "crystal_system": "trigonal",
        "hall": "-R 3 2\"c"
    },
    "dielectric": {
        "epsilon_ionic": [
            [
                12.56027956,
                -4e-08,
                -1e-07
            ],
            [
                -4e-08,
                12.5602955,
                5.99e-06
            ],
            [
                -1e-07,
                5.99e-06,
                10.9205976
            ]
        ],
        "epsilon_ionic_avg": 12.013724219999995,
        "epsilon_ionic_eig": [
            10.920597599978109,
            12.560279559899625,
            12.560295500122251
        ],
        "epsilon_electronic": [
            [
                4.93249076,
                0.0,
                -0.0
            ],
            [
                0.0,
                4.93249083,
                0.0
            ],
            [
                0.0,
                0.0,
                5.22522867
            ]
        ],
        "epsilon_electronic_avg": 5.030070086666666,
        "epsilon_electronic_eig": [
            4.93249076,
            4.93249083,
            5.22522867
        ]
    },
    "phonon": {
        "lowest_freq": -0.03333072521066737,
        "frequency": [
            -0.03333072521066737,
            -0.033330725027352924,
            -0.019427173221196307,
            3.3828243199911254,
            3.382824334440598,
            4.352270011762516,
            4.352270014570249,
            4.39495425948687,
            4.505942967443387,
            4.77972856833256,
            4.779728588785615,
            4.88282799269348,
            4.88282799269348,
            5.065332451622411,
            5.424914512493499,
            5.50791574447418,
            5.507915766660442,
            5.711411701771226,
            5.764481778982906,
            6.475943349224544,
            6.494872239882222,
            6.628607302636048,
            6.6286073210713035,
            7.101677931881985,
            7.269521991662735,
            7.269522042092487,
            7.597538286156973,
            7.597538302241139,
            7.834561861530183,
            7.884360232680389,
            7.884360248179436,
            8.645670533013895,
            8.645670533013895,
            9.38298542651883,
            9.451104365044328,
            9.451104390903755,
            9.570122839270798,
            9.616763404095337,
            9.657546933763733,
            9.657546946417057,
            10.351645534780557,
            10.351645534780557,
            10.942185655019816,
            10.94218566618761,
            11.249970662534775,
            11.249970662534775,
            11.545489031788644,
            11.545489042372873,
            12.249937919070037,
            12.597093306976767,
            12.59709332637808,
            12.625488687326495,
            13.392504964278595,
            14.393549577426986,
            14.82454570414622,
            15.104680983961206,
            15.104680983961206,
            16.110400185072066,
            16.44344882344735,
            16.443448897762703,
            16.53713785087669,
            16.53713785087669,
            16.972872158319493,
            16.972872158319493,
            17.368757668566666,
            17.788295782589135
        ]
    },
    "born_effective_charge": {
        "avg_abs_trace": 2.2298316666666667,
        "tensors": [
            [
                [
                    1.54871,
                    -0.0,
                    0.0
                ],
                [
                    6e-05,
                    1.54884,
                    -0.0
                ],
                [
                    -0.0,
                    0.0,
                    3.75679
                ]
            ],
            [
                [
                    1.54894,
                    -0.0,
                    0.0
                ],
                [
                    -6e-05,
                    1.54884,
                    -0.0
                ],
                [
                    -0.0,
                    0.0,
                    3.75679
                ]
            ],
            [
                [
                    2.8234,
                    -0.14133,
                    0.45005
                ],
                [
                    -0.14128,
                    2.66013,
                    -0.25984
                ],
                [
                    0.30686,
                    -0.17711,
                    2.4105
                ]
            ],
            [
                [
                    2.8234,
                    0.14133,
                    -0.45005
                ],
                [
                    0.14144,
                    2.66022,
                    -0.25978
                ],
                [
                    -0.30681,
                    -0.17719,
                    2.4105
                ]
            ],
            [
                [
                    2.57855,
                    -0.0,
                    0.0
                ],
                [
                    -7e-05,
                    2.90502,
                    0.51963
                ],
                [
                    -4e-05,
                    0.3543,
                    2.4105
                ]
            ],
            [
                [
                    2.82342,
                    -0.14138,
                    0.44998
                ],
                [
                    -0.14144,
                    2.66022,
                    -0.25978
                ],
                [
                    0.30681,
                    -0.17719,
                    2.4105
                ]
            ],
            [
                [
                    2.82342,
                    0.14138,
                    -0.44998
                ],
                [
                    0.14128,
                    2.66013,
                    -0.25984
                ],
                [
                    -0.30686,
                    -0.17711,
                    2.4105
                ]
            ],
            [
                [
                    2.57855,
                    -0.0,
                    0.0
                ],
                [
                    7e-05,
                    2.90502,
                    0.51963
                ],
                [
                    4e-05,
                    0.3543,
                    2.4105
                ]
            ],
            [
                [
                    1.96377,
                    -0.16661,
                    0.0
                ],
                [
                    0.16661,
                    1.96377,
                    0.0
                ],
                [
                    -0.0,
                    0.0,
                    2.32799
                ]
            ],
            [
                [
                    1.96377,
                    0.16661,
                    -0.0
                ],
                [
                    -0.16661,
                    1.96377,
                    0.0
                ],
                [
                    -0.0,
                    0.0,
                    2.32799
                ]
            ],
            [
                [
                    -1.80491,
                    -0.44685,
                    -0.46494
                ],
                [
                    -0.52605,
                    -2.10792,
                    -0.60431
                ],
                [
                    -0.39867,
                    -0.62367,
                    -2.21935
                ]
            ],
            [
                [
                    -1.61086,
                    0.41411,
                    -0.29093
                ],
                [
                    0.33556,
                    -2.30163,
                    0.70476
                ],
                [
                    -0.34078,
                    0.65709,
                    -2.21935
                ]
            ],
            [
                [
                    -2.45358,
                    0.15125,
                    0.75581
                ],
                [
                    0.07245,
                    -1.45905,
                    -0.10052
                ],
                [
                    0.73945,
                    -0.03342,
                    -2.21935
                ]
            ],
            [
                [
                    -1.61086,
                    -0.41411,
                    0.29093
                ],
                [
                    -0.33446,
                    -2.30206,
                    0.70489
                ],
                [
                    0.34032,
                    0.65731,
                    -2.21941
                ]
            ],
            [
                [
                    -1.80491,
                    0.44685,
                    0.46494
                ],
                [
                    0.52618,
                    -2.10805,
                    -0.60444
                ],
                [
                    0.39909,
                    -0.62338,
                    -2.21941
                ]
            ],
            [
                [
                    -2.45358,
                    -0.15125,
                    -0.75581
                ],
                [
                    -0.07221,
                    -1.45926,
                    -0.10038
                ],
                [
                    -0.73941,
                    -0.03393,
                    -2.21941
                ]
            ],
            [
                [
                    -1.80442,
                    -0.44702,
                    -0.46491
                ],
                [
                    -0.52618,
                    -2.10805,
                    -0.60444
                ],
                [
                    -0.39909,
                    -0.62338,
                    -2.21941
                ]
            ],
            [
                [
                    -1.61079,
                    0.41426,
                    -0.29095
                ],
                [
                    0.33446,
                    -2.30206,
                    0.70489
                ],
                [
                    -0.34032,
                    0.65731,
                    -2.21941
                ]
            ],
            [
                [
                    -2.45341,
                    0.15173,
                    0.7559
                ],
                [
                    0.07221,
                    -1.45926,
                    -0.10038
                ],
                [
                    0.73941,
                    -0.03393,
                    -2.21941
                ]
            ],
            [
                [
                    -1.61079,
                    -0.41426,
                    0.29095
                ],
                [
                    -0.33556,
                    -2.30163,
                    0.70476
                ],
                [
                    0.34078,
                    0.65709,
                    -2.21935
                ]
            ],
            [
                [
                    -2.45341,
                    -0.15173,
                    -0.7559
                ],
                [
                    -0.07245,
                    -1.45905,
                    -0.10052
                ],
                [
                    -0.73945,
                    -0.03342,
                    -2.21935
                ]
            ],
            [
                [
                    -1.80442,
                    0.44702,
                    0.46491
                ],
                [
                    0.52605,
                    -2.10792,
                    -0.60431
                ],
                [
                    0.39867,
                    -0.62367,
                    -2.21935
                ]
            ]
        ]
    },
    "band_gap": 2.1253999999999995,
    "is_direct": true,
    "formula": "Ca4PdO6"
}