{
    "mp_id": "mp-17857",
    "nelements": 3,
    "nsites": 35,
    "elements": [
        "O",
        "Ta",
        "V"
    ],
    "structure": {
        "@module": "pymatgen.core.structure",
        "@class": "Structure",
        "charge": null,
        "lattice": {
            "matrix": [
                [
                    -7.86141404,
                    7.86141374,
                    1.94373898
                ],
                [
                    7.86141404,
                    -7.86141374,
                    1.94373898
                ],
                [
                    7.86141374,
                    7.86141404,
                    -1.94373898
                ]
            ],
            "a": 11.286353614969777,
            "b": 11.286353614969777,
            "c": 11.286353614969777,
            "alpha": 91.69963204305655,
            "beta": 91.69963204305655,
            "gamma": 160.16612802155169,
            "volume": 480.5064911957618
        },
        "sites": [
            {
                "species": [
                    {
                        "element": "Ta",
                        "occu": 1
                    }
                ],
                "abc": [
                    0.14628696,
                    0.97030729,
                    0.62099711
                ],
                "xyz": [
                    11.359880204561726,
                    -1.59604934494791,
                    0.9633114793945172
                ],
                "label": "Ta",
                "properties": {}
            },
            {
                "species": [
                    {
                        "element": "Ta",
                        "occu": 1
                    }
                ],
                "abc": [
                    0.92580042,
                    0.87174483,
                    0.29727728
                ],
                "xyz": [
                    1.9120663194153438,
                    2.761973140714817,
                    2.916129333734471
                ],
                "label": "Ta",
                "properties": {}
            },
            {
                "species": [
                    {
                        "element": "Ta",
                        "occu": 1
                    }
                ],
                "abc": [
                    0.57446755,
                    0.62852314,
                    0.70272272
                ],
                "xyz": [
                    5.9493474205846555,
                    5.099440899285183,
                    0.9723903537344709
                ],
                "label": "Ta",
                "properties": {}
            },
            {
                "species": [
                    {
                        "element": "Ta",
                        "occu": 1
                    }
                ],
                "abc": [
                    0.37147686,
                    0.07419958,
                    0.94594441
                ],
                "xyz": [
                    5.099440599285181,
                    9.773480359415343,
                    -0.9723903537344705
                ],
                "label": "Ta",
                "properties": {}
            },
            {
                "species": [
                    {
                        "element": "Ta",
                        "occu": 1
                    }
                ],
                "abc": [
                    0.12825517,
                    0.42553245,
                    0.05405559
                ],
                "xyz": [
                    2.7619731407148174,
                    -1.9120663194153438,
                    0.9713486262655294
                ],
                "label": "Ta",
                "properties": {}
            },
            {
                "species": [
                    {
                        "element": "Ta",
                        "occu": 1
                    }
                ],
                "abc": [
                    0.47471015,
                    0.85371304,
                    0.82401933
                ],
                "xyz": [
                    9.45745552353417,
                    3.4984586031476845,
                    0.9804294443444626
                ],
                "label": "Ta",
                "properties": {}
            },
            {
                "species": [
                    {
                        "element": "Ta",
                        "occu": 1
                    }
                ],
                "abc": [
                    0.02969271,
                    0.65068983,
                    0.17598067
                ],
                "xyz": [
                    6.265372335079971,
                    -3.4984583817618216,
                    0.9804255763038927
                ],
                "label": "Ta",
                "properties": {}
            },
            {
                "species": [
                    {
                        "element": "Ta",
                        "occu": 1
                    }
                ],
                "abc": [
                    0.34931017,
                    0.52528985,
                    0.37900289
                ],
                "xyz": [
                    4.362947654052416,
                    1.5960495663337726,
                    0.9633114599571272
                ],
                "label": "Ta",
                "properties": {}
            },
            {
                "species": [
                    {
                        "element": "Ta",
                        "occu": 1
                    }
                ],
                "abc": [
                    0.25,
                    0.75,
                    0.5
                ],
                "xyz": [
                    7.86141389,
                    1.4999999997655777e-07,
                    0.97186949
                ],
                "label": "Ta",
                "properties": {}
            },
            {
                "species": [
                    {
                        "element": "V",
                        "occu": 1
                    }
                ],
                "abc": [
                    0.5,
                    0.5,
                    0.0
                ],
                "xyz": [
                    0.0,
                    0.0,
                    1.94373898
                ],
                "label": "V",
                "properties": {}
            },
            {
                "species": [
                    {
                        "element": "O",
                        "occu": 1
                    }
                ],
                "abc": [
                    0.79561992,
                    0.81298043,
                    0.12934855
                ],
                "xyz": [
                    1.153340625274637,
                    0.8803843551762351,
                    2.875279384895164
                ],
                "label": "O",
                "properties": {}
            },
            {
                "species": [
                    {
                        "element": "O",
                        "occu": 1
                    }
                ],
                "abc": [
                    0.33372863,
                    0.20438008,
                    0.01736051
                ],
                "xyz": [
                    -0.8803843551762347,
                    1.1533406252746374,
                    1.0121985751048361
                ],
                "label": "O",
                "properties": {}
            },
            {
                "species": [
                    {
                        "element": "O",
                        "occu": 1
                    }
                ],
                "abc": [
                    0.18701957,
                    0.31636812,
                    0.98263949
                ],
                "xyz": [
                    8.741798095176234,
                    6.708073414725362,
                    -0.9315404048951639
                ],
                "label": "O",
                "properties": {}
            },
            {
                "species": [
                    {
                        "element": "O",
                        "occu": 1
                    }
                ],
                "abc": [
                    0.68363188,
                    0.66627137,
                    0.87065145
                ],
                "xyz": [
                    6.708073114725362,
                    6.981029684823764,
                    0.9315404048951643
                ],
                "label": "O",
                "properties": {}
            },
            {
                "species": [
                    {
                        "element": "O",
                        "occu": 1
                    }
                ],
                "abc": [
                    0.75,
                    0.25,
                    0.5
                ],
                "xyz": [
                    -1.4999999997655777e-07,
                    7.86141389,
                    0.97186949
                ],
                "label": "O",
                "properties": {}
            },
            {
                "species": [
                    {
                        "element": "O",
                        "occu": 1
                    }
                ],
                "abc": [
                    0.63498975,
                    0.50059581,
                    0.6404964
                ],
                "xyz": [
                    3.9786807925736185,
                    6.091733758018192,
                    0.9623240988674571
                ],
                "label": "O",
                "properties": {}
            },
            {
                "species": [
                    {
                        "element": "O",
                        "occu": 1
                    }
                ],
                "abc": [
                    0.00550665,
                    0.36501025,
                    0.86560607
                ],
                "xyz": [
                    9.631094100595945,
                    3.9786811711877594,
                    -0.9623241183048467
                ],
                "label": "O",
                "properties": {}
            },
            {
                "species": [
                    {
                        "element": "O",
                        "occu": 1
                    }
                ],
                "abc": [
                    0.49940419,
                    0.13990058,
                    0.13439393
                ],
                "xyz": [
                    -1.769680439210086,
                    3.882732947426378,
                    0.9814148811325432
                ],
                "label": "O",
                "properties": {}
            },
            {
                "species": [
                    {
                        "element": "O",
                        "occu": 1
                    }
                ],
                "abc": [
                    0.86009942,
                    0.99449335,
                    0.3595036
                ],
                "xyz": [
                    3.8827328688122424,
                    1.7696803605959444,
                    2.9060630983048465
                ],
                "label": "O",
                "properties": {}
            },
            {
                "species": [
                    {
                        "element": "O",
                        "occu": 1
                    }
                ],
                "abc": [
                    0.02861803,
                    0.9220801,
                    0.46111945
                ],
                "xyz": [
                    10.648926041316704,
                    -3.3988240749197627,
                    0.9516131640929462
                ],
                "label": "O",
                "properties": {}
            },
            {
                "species": [
                    {
                        "element": "O",
                        "occu": 1
                    }
                ],
                "abc": [
                    0.97282678,
                    0.7644504,
                    0.2326256
                ],
                "xyz": [
                    0.1906330887793679,
                    3.4668990947268847,
                    2.9246499273645883
                ],
                "label": "O",
                "properties": {}
            },
            {
                "species": [
                    {
                        "element": "O",
                        "occu": 1
                    }
                ],
                "abc": [
                    0.25979982,
                    0.02717322,
                    0.79162363
                ],
                "xyz": [
                    4.394506862473212,
                    8.052055068807249,
                    -0.9809090230629983
                ],
                "label": "O",
                "properties": {}
            },
            {
                "species": [
                    {
                        "element": "O",
                        "occu": 1
                    }
                ],
                "abc": [
                    0.2355496,
                    0.46817619,
                    0.20837637
                ],
                "xyz": [
                    3.466906798912647,
                    -0.19064095019311145,
                    0.9628299763743917
                ],
                "label": "O",
                "properties": {}
            },
            {
                "species": [
                    {
                        "element": "O",
                        "occu": 1
                    }
                ],
                "abc": [
                    0.53182381,
                    0.74020018,
                    0.7673744
                ],
                "xyz": [
                    7.670780572606491,
                    4.394515023887252,
                    0.9809070793240182
                ],
                "label": "O",
                "properties": {}
            },
            {
                "species": [
                    {
                        "element": "O",
                        "occu": 1
                    }
                ],
                "abc": [
                    0.36694673,
                    0.80237886,
                    0.66795536
                ],
                "xyz": [
                    8.674185705059752,
                    1.8279615155777869,
                    0.9745328594625655
                ],
                "label": "O",
                "properties": {}
            },
            {
                "species": [
                    {
                        "element": "O",
                        "occu": 1
                    }
                ],
                "abc": [
                    0.30100963,
                    0.63305327,
                    0.43543313
                ],
                "xyz": [
                    6.033452524421912,
                    0.8127876878875315,
                    0.9692061205374346
                ],
                "label": "O",
                "properties": {}
            },
            {
                "species": [
                    {
                        "element": "O",
                        "occu": 1
                    }
                ],
                "abc": [
                    0.19762114,
                    0.8655765,
                    0.56456687
                ],
                "xyz": [
                    9.689367394164048,
                    -0.8127795264737907,
                    0.9692080642764143
                ],
                "label": "O",
                "properties": {}
            },
            {
                "species": [
                    {
                        "element": "O",
                        "occu": 1
                    }
                ],
                "abc": [
                    0.43250142,
                    0.97138197,
                    0.89346207
                ],
                "xyz": [
                    11.260238114919762,
                    2.7875123013167062,
                    0.9921258159070536
                ],
                "label": "O",
                "properties": {}
            },
            {
                "species": [
                    {
                        "element": "O",
                        "occu": 1
                    }
                ],
                "abc": [
                    0.40550579,
                    0.39529914,
                    0.30661554
                ],
                "xyz": [
                    2.3301929174421536,
                    2.4906704095875525,
                    0.9605751808454221
                ],
                "label": "O",
                "properties": {}
            },
            {
                "species": [
                    {
                        "element": "O",
                        "occu": 1
                    }
                ],
                "abc": [
                    0.90110975,
                    0.59449421,
                    0.98979235
                ],
                "xyz": [
                    5.370735468998706,
                    10.191599096028114,
                    0.9831657428935576
                ],
                "label": "O",
                "properties": {}
            },
            {
                "species": [
                    {
                        "element": "O",
                        "occu": 1
                    }
                ],
                "abc": [
                    0.60470086,
                    0.9113164,
                    0.01020765
                ],
                "xyz": [
                    2.490678271001293,
                    -2.3301850560281134,
                    2.9269008354155983
                ],
                "label": "O",
                "properties": {}
            },
            {
                "species": [
                    {
                        "element": "O",
                        "occu": 1
                    }
                ],
                "abc": [
                    0.0886836,
                    0.09889025,
                    0.69338446
                ],
                "xyz": [
                    5.531220822557846,
                    5.370743630412448,
                    -0.9831637991545777
                ],
                "label": "O",
                "properties": {}
            },
            {
                "species": [
                    {
                        "element": "O",
                        "occu": 1
                    }
                ],
                "abc": [
                    0.46096166,
                    0.56749858,
                    0.53888055
                ],
                "xyz": [
                    5.073893798655114,
                    3.3988323149476414,
                    0.9516151272693161
                ],
                "label": "O",
                "properties": {}
            },
            {
                "species": [
                    {
                        "element": "O",
                        "occu": 1
                    }
                ],
                "abc": [
                    0.0779199,
                    0.53903834,
                    0.10653793
                ],
                "xyz": [
                    4.462581725052055,
                    -2.787504061288828,
                    0.9921238527306836
                ],
                "label": "O",
                "properties": {}
            },
            {
                "species": [
                    {
                        "element": "O",
                        "occu": 1
                    }
                ],
                "abc": [
                    0.1344235,
                    0.69899037,
                    0.33204464
                ],
                "xyz": [
                    7.048634213526208,
                    -1.8279533541640478,
                    0.9745309157235854
                ],
                "label": "O",
                "properties": {}
            }
        ]
    },
    "spacegroup": {
        "source": "spglib",
        "symbol": "I-4",
        "number": 82,
        "point_group": "-4",
        "crystal_system": "tetragonal",
        "hall": "I -4"
    },
    "dielectric": {
        "epsilon_ionic": [
            [
                21.26591832,
                -0.00348641,
                0.00017546
            ],
            [
                -0.00348641,
                21.27194498,
                4.605e-05
            ],
            [
                0.00017546,
                4.605e-05,
                18.39655017
            ]
        ],
        "epsilon_ionic_avg": 20.31147115666666,
        "epsilon_ionic_eig": [
            21.264323493130547,
            21.273539818343046,
            18.39655015852639
        ],
        "epsilon_electronic": [
            [
                5.10952463,
                2.034e-05,
                0.0
            ],
            [
                -2.034e-05,
                5.10952463,
                0.0
            ],
            [
                0.0,
                0.0,
                4.55410958
            ]
        ],
        "epsilon_electronic_avg": 4.92438628,
        "epsilon_electronic_eig": [
            5.10952463,
            5.10952463,
            4.55410958
        ]
    },
    "phonon": {
        "lowest_freq": -0.129330091695746,
        "frequency": [
            -0.129330091695746,
            -0.129330091695746,
            -0.04973593793970847,
            1.4025979621992546,
            1.770918887015604,
            1.9376322544624178,
            1.9376322544624178,
            2.471938320289554,
            2.56479920213347,
            2.8359823949234944,
            2.8359823949234944,
            3.321732492785869,
            3.3498396728657824,
            3.353066332182488,
            3.353066332182488,
            3.6047837842589714,
            3.858494978334481,
            4.518405097842369,
            4.518405097842369,
            4.522851288930969,
            4.618798500095332,
            5.1450021293371835,
            5.196759222507183,
            5.196759222507183,
            5.468742127455065,
            5.636383838535025,
            5.636383838535025,
            5.683470031619578,
            5.74947726838933,
            6.388226059836705,
            6.388226059836705,
            6.490167631790611,
            6.953108143249337,
            7.076278995979277,
            7.076278995979277,
            7.159584547545691,
            7.202947322253425,
            7.361616521542116,
            7.459578918852867,
            7.459578918852867,
            7.575882051333747,
            7.614650196299195,
            7.614650196299195,
            7.666963095638372,
            7.697248601370304,
            7.697248601370304,
            7.920108475398815,
            7.9765443073621025,
            7.9765443073621025,
            8.03877085097021,
            8.310563575902448,
            8.32621576316303,
            8.333480256856905,
            8.333480256856905,
            8.573378189281387,
            8.620153234212818,
            8.620153234212818,
            9.110190465816864,
            9.110190465816864,
            9.13994227597956,
            9.641154268371194,
            9.641154268371194,
            10.338142862328603,
            10.731694967044147,
            10.731694967044147,
            10.970536786274014,
            11.09087247692283,
            11.876456095756764,
            11.967096441116805,
            11.976278905069684,
            12.183847738834926,
            12.183847738834926,
            12.871536942327714,
            13.280505765105955,
            13.59082066501427,
            13.59082066501427,
            13.701099989863119,
            13.701099989863119,
            13.962904961233297,
            14.061784420212842,
            15.955018303090505,
            15.955018303090505,
            15.961485890948698,
            16.179364289508516,
            16.20195068446737,
            18.831906152371456,
            19.55599128918666,
            19.55599128918666,
            20.033820571703835,
            20.100466416716706,
            20.111786109799628,
            20.263310800955377,
            20.263310800955377,
            21.02172114640527,
            21.219294864463077,
            21.219294864463077,
            25.009139152316532,
            25.009139152316532,
            26.023874923667698,
            26.179966249414708,
            26.884740400293147,
            28.86009523782979,
            29.228405267090437,
            29.32902620131952,
            29.32902620131952
        ]
    },
    "born_effective_charge": {
        "avg_abs_trace": 4.109131333333334,
        "tensors": [
            [
                [
                    7.1711,
                    -0.89748,
                    -0.00014
                ],
                [
                    -0.59829,
                    8.31191,
                    0.0153
                ],
                [
                    0.07666,
                    0.32958,
                    6.43842
                ]
            ],
            [
                [
                    7.52178,
                    -1.25563,
                    -0.03105
                ],
                [
                    -0.86477,
                    7.99658,
                    -0.07297
                ],
                [
                    -0.09832,
                    0.67621,
                    6.54542
                ]
            ],
            [
                [
                    7.52526,
                    -1.25433,
                    0.03109
                ],
                [
                    -0.86377,
                    7.99752,
                    0.07305
                ],
                [
                    0.09832,
                    -0.67621,
                    6.54542
                ]
            ],
            [
                [
                    7.99334,
                    0.85926,
                    0.07449
                ],
                [
                    1.25815,
                    7.52163,
                    -0.02988
                ],
                [
                    -0.67702,
                    -0.09956,
                    6.54513
                ]
            ],
            [
                [
                    7.99352,
                    0.86305,
                    -0.07412
                ],
                [
                    1.2584,
                    7.52282,
                    0.02991
                ],
                [
                    0.67702,
                    0.09956,
                    6.54513
                ]
            ],
            [
                [
                    8.31081,
                    0.59298,
                    -0.01499
                ],
                [
                    0.8927,
                    7.16938,
                    -0.00048
                ],
                [
                    -0.32686,
                    0.07635,
                    6.4391
                ]
            ],
            [
                [
                    8.30664,
                    0.59397,
                    0.0149
                ],
                [
                    0.89194,
                    7.16868,
                    0.00037
                ],
                [
                    0.32686,
                    -0.07635,
                    6.4391
                ]
            ],
            [
                [
                    7.17297,
                    -0.8929,
                    -0.00021
                ],
                [
                    -0.59675,
                    8.31335,
                    -0.01534
                ],
                [
                    -0.07666,
                    -0.32958,
                    6.43842
                ]
            ],
            [
                [
                    8.40175,
                    -0.30177,
                    5e-05
                ],
                [
                    0.29777,
                    8.40228,
                    -5e-05
                ],
                [
                    -0.0,
                    0.0,
                    9.50702
                ]
            ],
            [
                [
                    5.03379,
                    1.21236,
                    0.00083
                ],
                [
                    -1.20748,
                    5.03379,
                    0.00029
                ],
                [
                    -0.0,
                    0.0,
                    3.41731
                ]
            ],
            [
                [
                    -2.22905,
                    1.86685,
                    0.86091
                ],
                [
                    2.22829,
                    -3.76728,
                    -1.14552
                ],
                [
                    0.74956,
                    -0.82432,
                    -1.39705
                ]
            ],
            [
                [
                    -3.76669,
                    -2.23042,
                    1.14466
                ],
                [
                    -1.87028,
                    -2.23063,
                    0.86087
                ],
                [
                    0.82644,
                    0.75101,
                    -1.39633
                ]
            ],
            [
                [
                    -3.76848,
                    -2.23194,
                    -1.1455
                ],
                [
                    -1.87064,
                    -2.23096,
                    -0.86127
                ],
                [
                    -0.82644,
                    -0.75101,
                    -1.39633
                ]
            ],
            [
                [
                    -2.22999,
                    1.86782,
                    -0.86154
                ],
                [
                    2.22819,
                    -3.76719,
                    1.14539
                ],
                [
                    -0.74956,
                    0.82432,
                    -1.39705
                ]
            ],
            [
                [
                    -1.39016,
                    0.04325,
                    0.00016
                ],
                [
                    -0.04707,
                    -1.39385,
                    0.0002
                ],
                [
                    -0.0,
                    0.0,
                    -7.35228
                ]
            ],
            [
                [
                    -2.34621,
                    -0.42203,
                    0.00576
                ],
                [
                    -0.36197,
                    -1.56059,
                    0.01169
                ],
                [
                    -0.06427,
                    -0.02766,
                    -4.90494
                ]
            ],
            [
                [
                    -1.56261,
                    0.36361,
                    -0.01118
                ],
                [
                    0.42398,
                    -2.34779,
                    0.00574
                ],
                [
                    0.02674,
                    -0.06317,
                    -4.90619
                ]
            ],
            [
                [
                    -1.56183,
                    0.36316,
                    0.01158
                ],
                [
                    0.4239,
                    -2.34737,
                    -0.00543
                ],
                [
                    -0.02674,
                    0.06317,
                    -4.90619
                ]
            ],
            [
                [
                    -2.34679,
                    -0.42274,
                    -0.00532
                ],
                [
                    -0.36208,
                    -1.56084,
                    -0.01154
                ],
                [
                    0.06427,
                    0.02766,
                    -4.90494
                ]
            ],
            [
                [
                    -2.24529,
                    2.47403,
                    -0.02712
                ],
                [
                    2.15172,
                    -5.80503,
                    0.03704
                ],
                [
                    0.05014,
                    -0.17666,
                    -1.15739
                ]
            ],
            [
                [
                    -5.48338,
                    -1.86933,
                    -0.0015
                ],
                [
                    -1.94556,
                    -2.09681,
                    -0.0022
                ],
                [
                    -0.29614,
                    -0.16116,
                    -0.977
                ]
            ],
            [
                [
                    -2.09867,
                    1.95011,
                    0.00266
                ],
                [
                    1.86987,
                    -5.4879,
                    -0.00125
                ],
                [
                    0.16223,
                    -0.29756,
                    -0.9775
                ]
            ],
            [
                [
                    -2.09791,
                    1.94712,
                    -0.0025
                ],
                [
                    1.86976,
                    -5.48851,
                    0.00129
                ],
                [
                    -0.16223,
                    0.29756,
                    -0.9775
                ]
            ],
            [
                [
                    -5.48749,
                    -1.87091,
                    0.00138
                ],
                [
                    -1.94711,
                    -2.09758,
                    0.00198
                ],
                [
                    0.29614,
                    0.16116,
                    -0.977
                ]
            ],
            [
                [
                    -2.20472,
                    2.05742,
                    0.00711
                ],
                [
                    1.81893,
                    -5.34381,
                    -0.01266
                ],
                [
                    0.06026,
                    -0.06979,
                    -0.97484
                ]
            ],
            [
                [
                    -5.34694,
                    -1.81567,
                    0.01331
                ],
                [
                    -2.05489,
                    -2.20273,
                    0.00713
                ],
                [
                    0.06998,
                    0.06104,
                    -0.97838
                ]
            ],
            [
                [
                    -5.34613,
                    -1.81498,
                    -0.01326
                ],
                [
                    -2.05418,
                    -2.20249,
                    -0.00725
                ],
                [
                    -0.06998,
                    -0.06104,
                    -0.97838
                ]
            ],
            [
                [
                    -5.80057,
                    -2.15088,
                    -0.03837
                ],
                [
                    -2.47224,
                    -2.2449,
                    -0.02784
                ],
                [
                    0.17505,
                    0.05004,
                    -1.15765
                ]
            ],
            [
                [
                    -2.36335,
                    -0.34672,
                    0.04388
                ],
                [
                    -0.34482,
                    -1.56752,
                    0.07994
                ],
                [
                    0.10675,
                    -0.01413,
                    -4.96366
                ]
            ],
            [
                [
                    -1.57053,
                    0.34592,
                    -0.0805
                ],
                [
                    0.34729,
                    -2.36603,
                    0.04245
                ],
                [
                    0.01336,
                    0.10815,
                    -4.96316
                ]
            ],
            [
                [
                    -1.57034,
                    0.34516,
                    0.08038
                ],
                [
                    0.34724,
                    -2.36609,
                    -0.04232
                ],
                [
                    -0.01336,
                    -0.10815,
                    -4.96316
                ]
            ],
            [
                [
                    -2.36424,
                    -0.34708,
                    -0.04385
                ],
                [
                    -0.34465,
                    -1.56768,
                    -0.07996
                ],
                [
                    -0.10675,
                    0.01413,
                    -4.96366
                ]
            ],
            [
                [
                    -2.24509,
                    2.47287,
                    0.02723
                ],
                [
                    2.15189,
                    -5.80586,
                    -0.03697
                ],
                [
                    -0.05014,
                    0.17666,
                    -1.15739
                ]
            ],
            [
                [
                    -5.80028,
                    -2.15111,
                    0.03796
                ],
                [
                    -2.47217,
                    -2.24493,
                    0.02762
                ],
                [
                    -0.17505,
                    -0.05004,
                    -1.15765
                ]
            ],
            [
                [
                    -2.20425,
                    2.05696,
                    -0.00721
                ],
                [
                    1.8187,
                    -5.3436,
                    0.0127
                ],
                [
                    -0.06026,
                    0.06979,
                    -0.97484
                ]
            ]
        ]
    },
    "band_gap": 2.8141999999999996,
    "is_direct": false,
    "formula": "Ta9VO25"
}