{
    "mp_id": "mp-14115",
    "nelements": 3,
    "nsites": 4,
    "elements": [
        "Li",
        "O",
        "Rh"
    ],
    "structure": {
        "@module": "pymatgen.core.structure",
        "@class": "Structure",
        "charge": null,
        "lattice": {
            "matrix": [
                [
                    1.50675897,
                    0.86992822,
                    4.69547266
                ],
                [
                    -1.50675897,
                    0.86992822,
                    4.69547266
                ],
                [
                    0.0,
                    -1.73985544,
                    4.69547266
                ]
            ],
            "a": 5.007450569145472,
            "b": 5.007450569145472,
            "c": 5.00745049430397,
            "alpha": 35.02375081273679,
            "beta": 35.02375081273679,
            "gamma": 35.023744628143085,
            "volume": 36.928154577529575
        },
        "sites": [
            {
                "species": [
                    {
                        "element": "Li",
                        "occu": 1
                    }
                ],
                "abc": [
                    0.5,
                    0.5,
                    0.5
                ],
                "xyz": [
                    0.0,
                    5.00000000069889e-07,
                    7.04320899
                ],
                "label": "Li",
                "properties": {}
            },
            {
                "species": [
                    {
                        "element": "Rh",
                        "occu": 1
                    }
                ],
                "abc": [
                    0.0,
                    0.0,
                    0.0
                ],
                "xyz": [
                    0.0,
                    0.0,
                    0.0
                ],
                "label": "Rh",
                "properties": {}
            },
            {
                "species": [
                    {
                        "element": "O",
                        "occu": 1
                    }
                ],
                "abc": [
                    0.74318681,
                    0.74318681,
                    0.74318681
                ],
                "xyz": [
                    0.0,
                    7.431868100926664e-07,
                    10.468840042882844
                ],
                "label": "O",
                "properties": {}
            },
            {
                "species": [
                    {
                        "element": "O",
                        "occu": 1
                    }
                ],
                "abc": [
                    0.25681319,
                    0.25681319,
                    0.25681319
                ],
                "xyz": [
                    0.0,
                    2.5681319004711156e-07,
                    3.6175779371171566
                ],
                "label": "O",
                "properties": {}
            }
        ]
    },
    "spacegroup": {
        "source": "spglib",
        "symbol": "R-3m",
        "number": 166,
        "point_group": "-3m",
        "crystal_system": "trigonal",
        "hall": "-R 3 2\""
    },
    "dielectric": {
        "epsilon_ionic": [
            [
                15.3636567,
                -0.0,
                -1e-08
            ],
            [
                -0.0,
                15.36335281,
                -3.251e-05
            ],
            [
                -1e-08,
                -3.251e-05,
                7.55340073
            ]
        ],
        "epsilon_ionic_avg": 12.760136746666667,
        "epsilon_ionic_eig": [
            15.3636567,
            7.553400729864672,
            15.36335281013533
        ],
        "epsilon_electronic": [
            [
                7.01478168,
                0.0,
                0.0
            ],
            [
                0.0,
                7.01478629,
                -0.0
            ],
            [
                0.0,
                0.0,
                4.05931491
            ]
        ],
        "epsilon_electronic_avg": 6.029627626666667,
        "epsilon_electronic_eig": [
            7.01478168,
            7.01478629,
            4.05931491
        ]
    },
    "phonon": {
        "lowest_freq": -0.02051167786578842,
        "frequency": [
            -0.02051167786578842,
            -0.02051167113371619,
            -0.005745194669047722,
            4.903540481075947,
            4.903542093450309,
            9.978714060373946,
            14.59339559802735,
            14.593400387757447,
            15.010057756961709,
            15.26810952513939,
            15.268114535401365,
            15.640552841800137
        ]
    },
    "born_effective_charge": {
        "avg_abs_trace": 1.9572283333333333,
        "tensors": [
            [
                [
                    1.22125,
                    0.0,
                    0.0
                ],
                [
                    0.0,
                    1.22123,
                    -1e-05
                ],
                [
                    0.0,
                    0.0,
                    1.73144
                ]
            ],
            [
                [
                    3.27873,
                    0.0,
                    -0.0
                ],
                [
                    0.0,
                    3.27874,
                    -0.0
                ],
                [
                    -0.0,
                    -0.0,
                    1.01198
                ]
            ],
            [
                [
                    -2.24999,
                    0.00042,
                    0.00054
                ],
                [
                    0.0,
                    -2.24996,
                    -2e-05
                ],
                [
                    0.0,
                    -0.0,
                    -1.37173
                ]
            ],
            [
                [
                    -2.24999,
                    -0.00042,
                    -0.00054
                ],
                [
                    0.0,
                    -2.25001,
                    3e-05
                ],
                [
                    0.0,
                    0.0,
                    -1.37169
                ]
            ]
        ]
    },
    "band_gap": 2.2338000000000005,
    "is_direct": false,
    "formula": "LiRhO2"
}