{
    "mp_id": "mp-19447",
    "nelements": 4,
    "nsites": 16,
    "elements": [
        "Cs",
        "Na",
        "O",
        "V"
    ],
    "structure": {
        "@module": "pymatgen.core.structure",
        "@class": "Structure",
        "charge": null,
        "lattice": {
            "matrix": [
                [
                    6.02510622,
                    0.0,
                    -1.634e-05
                ],
                [
                    0.0,
                    6.12328493,
                    0.0
                ],
                [
                    -0.45632405,
                    0.0,
                    8.22565677
                ]
            ],
            "a": 6.025106220022156,
            "b": 6.12328493,
            "c": 8.23830449403609,
            "alpha": 90.0,
            "beta": 93.17542405686126,
            "gamma": 90.0,
            "volume": 303.47274627399815
        },
        "sites": [
            {
                "species": [
                    {
                        "element": "Cs",
                        "occu": 1
                    }
                ],
                "abc": [
                    0.80175935,
                    0.25,
                    0.51446191
                ],
                "xyz": [
                    4.595923904286222,
                    1.5308212325,
                    4.231773992150852
                ],
                "label": "Cs",
                "properties": {}
            },
            {
                "species": [
                    {
                        "element": "Cs",
                        "occu": 1
                    }
                ],
                "abc": [
                    0.19824065,
                    0.75,
                    0.48553809
                ],
                "xyz": [
                    0.9728582657137784,
                    4.5924636974999995,
                    3.993866437849148
                ],
                "label": "Cs",
                "properties": {}
            },
            {
                "species": [
                    {
                        "element": "Cs",
                        "occu": 1
                    }
                ],
                "abc": [
                    0.64986137,
                    0.75,
                    0.18097505
                ],
                "xyz": [
                    3.8329005147597686,
                    4.5924636974999995,
                    1.488628026498803
                ],
                "label": "Cs",
                "properties": {}
            },
            {
                "species": [
                    {
                        "element": "Cs",
                        "occu": 1
                    }
                ],
                "abc": [
                    0.35013863,
                    0.25,
                    0.81902495
                ],
                "xyz": [
                    1.735881655240231,
                    1.5308212325,
                    6.737012403501197
                ],
                "label": "Cs",
                "properties": {}
            },
            {
                "species": [
                    {
                        "element": "Na",
                        "occu": 1
                    }
                ],
                "abc": [
                    0.12612175,
                    0.75,
                    0.97246565
                ],
                "xyz": [
                    0.31613747650840246,
                    4.5924636974999995,
                    7.999166596685556
                ],
                "label": "Na",
                "properties": {}
            },
            {
                "species": [
                    {
                        "element": "Na",
                        "occu": 1
                    }
                ],
                "abc": [
                    0.87387825,
                    0.25,
                    0.02753435
                ],
                "xyz": [
                    5.252644693491597,
                    1.5308212325,
                    0.2264738333144445
                ],
                "label": "Na",
                "properties": {}
            },
            {
                "species": [
                    {
                        "element": "V",
                        "occu": 1
                    }
                ],
                "abc": [
                    0.2964518,
                    0.25,
                    0.2424252
                ],
                "xyz": [
                    1.675529135024136,
                    1.5308212325,
                    1.994101643576192
                ],
                "label": "V",
                "properties": {}
            },
            {
                "species": [
                    {
                        "element": "V",
                        "occu": 1
                    }
                ],
                "abc": [
                    0.7035482,
                    0.75,
                    0.7575748
                ],
                "xyz": [
                    3.893253034975863,
                    4.5924636974999995,
                    6.231538786423808
                ],
                "label": "V",
                "properties": {}
            },
            {
                "species": [
                    {
                        "element": "O",
                        "occu": 1
                    }
                ],
                "abc": [
                    0.15515965,
                    0.02189757,
                    0.16614093
                ],
                "xyz": [
                    0.8590392702596565,
                    0.1340850603846201,
                    1.3666157303199151
                ],
                "label": "O",
                "properties": {}
            },
            {
                "species": [
                    {
                        "element": "O",
                        "occu": 1
                    }
                ],
                "abc": [
                    0.84484035,
                    0.52189757,
                    0.83385907
                ],
                "xyz": [
                    4.709742899740343,
                    3.19572752538462,
                    6.859024699680086
                ],
                "label": "O",
                "properties": {}
            },
            {
                "species": [
                    {
                        "element": "O",
                        "occu": 1
                    }
                ],
                "abc": [
                    0.84484035,
                    0.97810243,
                    0.83385907
                ],
                "xyz": [
                    4.709742899740343,
                    5.989199869615379,
                    6.859024699680086
                ],
                "label": "O",
                "properties": {}
            },
            {
                "species": [
                    {
                        "element": "O",
                        "occu": 1
                    }
                ],
                "abc": [
                    0.15515965,
                    0.47810243,
                    0.16614093
                ],
                "xyz": [
                    0.8590392702596565,
                    2.92755740461538,
                    1.3666157303199151
                ],
                "label": "O",
                "properties": {}
            },
            {
                "species": [
                    {
                        "element": "O",
                        "occu": 1
                    }
                ],
                "abc": [
                    0.43312199,
                    0.75,
                    0.82040549
                ],
                "xyz": [
                    2.2352352401287434,
                    4.5924636974999995,
                    6.748366895750351
                ],
                "label": "O",
                "properties": {}
            },
            {
                "species": [
                    {
                        "element": "O",
                        "occu": 1
                    }
                ],
                "abc": [
                    0.69827737,
                    0.75,
                    0.5479106
                ],
                "xyz": [
                    3.9571705412423115,
                    4.5924636974999995,
                    4.506913126392536
                ],
                "label": "O",
                "properties": {}
            },
            {
                "species": [
                    {
                        "element": "O",
                        "occu": 1
                    }
                ],
                "abc": [
                    0.56687801,
                    0.25,
                    0.17959451
                ],
                "xyz": [
                    3.333546929871257,
                    1.5308212325,
                    1.4772735342496495
                ],
                "label": "O",
                "properties": {}
            },
            {
                "species": [
                    {
                        "element": "O",
                        "occu": 1
                    }
                ],
                "abc": [
                    0.30172263,
                    0.25,
                    0.4520894
                ],
                "xyz": [
                    1.6116116287576885,
                    1.5308212325,
                    3.718727303607464
                ],
                "label": "O",
                "properties": {}
            }
        ]
    },
    "spacegroup": {
        "source": "spglib",
        "symbol": "P2_1/m",
        "number": 11,
        "point_group": "2/m",
        "crystal_system": "monoclinic",
        "hall": "-P 2yb"
    },
    "dielectric": {
        "epsilon_ionic": [
            [
                6.52008475,
                -2e-07,
                0.23733338
            ],
            [
                -2e-07,
                5.42073274,
                5.5e-07
            ],
            [
                0.23733338,
                5.5e-07,
                4.44703237
            ]
        ],
        "epsilon_ionic_avg": 5.462616620000001,
        "epsilon_ionic_eig": [
            6.546908773155654,
            4.420208346844041,
            5.4207327400003065
        ],
        "epsilon_electronic": [
            [
                3.05886138,
                0.0,
                -0.02156055
            ],
            [
                0.0,
                3.15249542,
                0.0
            ],
            [
                -0.02156163,
                0.0,
                3.17533381
            ]
        ],
        "epsilon_electronic_avg": 3.12889687,
        "epsilon_electronic_eig": [
            3.0549981800331687,
            3.1791970099668316,
            3.15249542
        ]
    },
    "phonon": {
        "lowest_freq": -0.13804347462684777,
        "frequency": [
            -0.13804347462684777,
            -0.10680494528595172,
            -0.09451401136084348,
            1.2053629552940728,
            1.4528973153435714,
            1.4894543266248776,
            1.692744364369643,
            1.7960312794147735,
            1.9342017571470427,
            2.2223335192993905,
            2.2881336764526097,
            2.364734844572318,
            2.6144968527343053,
            2.6238978413343523,
            2.8543364519967818,
            3.078815045960391,
            3.171527040452489,
            3.3287480851032702,
            3.455531866408808,
            3.812862916139519,
            4.215637783199976,
            4.5198152911531375,
            4.666893501115505,
            4.6806873383136285,
            5.7391486493309065,
            6.010891301904135,
            6.317434360332178,
            6.50605359558024,
            6.599136617659407,
            6.715647709397565,
            8.873388565406072,
            9.023051423824079,
            9.462890117085275,
            9.627317472835497,
            9.698384073550566,
            10.17752747447033,
            10.278216594271663,
            10.470852713915447,
            10.870074650043183,
            11.119620029385379,
            23.277833284249315,
            23.61117340570225,
            23.662790965359758,
            23.903084921920506,
            23.99370532790955,
            24.04506333319271,
            24.232094961448855,
            24.917384572955516
        ]
    },
    "born_effective_charge": {
        "avg_abs_trace": 1.6875535416666665,
        "tensors": [
            [
                [
                    1.38188,
                    0.0,
                    0.07707
                ],
                [
                    -0.0002,
                    1.37777,
                    -1e-05
                ],
                [
                    0.05839,
                    0.0,
                    1.20077
                ]
            ],
            [
                [
                    1.38198,
                    0.0,
                    0.07686
                ],
                [
                    0.0002,
                    1.37777,
                    1e-05
                ],
                [
                    0.05834,
                    0.0,
                    1.20093
                ]
            ],
            [
                [
                    1.15342,
                    0.0,
                    -0.02335
                ],
                [
                    -0.00014,
                    1.48754,
                    5e-05
                ],
                [
                    0.02775,
                    0.0,
                    1.58905
                ]
            ],
            [
                [
                    1.1536,
                    0.0,
                    -0.02319
                ],
                [
                    0.00014,
                    1.48754,
                    -5e-05
                ],
                [
                    0.02765,
                    0.0,
                    1.58921
                ]
            ],
            [
                [
                    1.30123,
                    0.0,
                    0.10447
                ],
                [
                    1e-05,
                    1.05948,
                    -0.0
                ],
                [
                    0.05846,
                    0.0,
                    1.24553
                ]
            ],
            [
                [
                    1.30117,
                    0.0,
                    0.1045
                ],
                [
                    -1e-05,
                    1.05948,
                    0.0
                ],
                [
                    0.05846,
                    0.0,
                    1.24549
                ]
            ],
            [
                [
                    2.63656,
                    0.0,
                    -0.05886
                ],
                [
                    -0.00029,
                    2.8966,
                    -6e-05
                ],
                [
                    -0.08309,
                    0.0,
                    2.91936
                ]
            ],
            [
                [
                    2.63718,
                    0.0,
                    -0.06037
                ],
                [
                    0.00029,
                    2.8966,
                    6e-05
                ],
                [
                    -0.08344,
                    0.0,
                    2.92115
                ]
            ],
            [
                [
                    -1.41277,
                    -0.62373,
                    -0.30062
                ],
                [
                    -0.81386,
                    -2.31163,
                    -0.55322
                ],
                [
                    -0.3032,
                    -0.44661,
                    -1.33979
                ]
            ],
            [
                [
                    -1.41214,
                    0.62262,
                    -0.30026
                ],
                [
                    0.81386,
                    -2.31163,
                    0.55322
                ],
                [
                    -0.30385,
                    0.44688,
                    -1.34012
                ]
            ],
            [
                [
                    -1.41214,
                    -0.62262,
                    -0.30026
                ],
                [
                    -0.81425,
                    -2.31327,
                    -0.55323
                ],
                [
                    -0.30385,
                    -0.44688,
                    -1.34012
                ]
            ],
            [
                [
                    -1.41277,
                    0.62373,
                    -0.30062
                ],
                [
                    0.81425,
                    -2.31327,
                    0.55323
                ],
                [
                    -0.3032,
                    0.44661,
                    -1.33979
                ]
            ],
            [
                [
                    -2.53347,
                    0.0,
                    0.42124
                ],
                [
                    -0.00114,
                    -1.14905,
                    0.00018
                ],
                [
                    0.48381,
                    0.0,
                    -1.35208
                ]
            ],
            [
                [
                    -1.11672,
                    0.0,
                    0.08478
                ],
                [
                    0.00018,
                    -1.04744,
                    -0.00133
                ],
                [
                    0.06227,
                    0.0,
                    -2.9255
                ]
            ],
            [
                [
                    -2.53038,
                    0.0,
                    0.42031
                ],
                [
                    0.00114,
                    -1.14905,
                    -0.00018
                ],
                [
                    0.48314,
                    0.0,
                    -1.35175
                ]
            ],
            [
                [
                    -1.11661,
                    0.0,
                    0.0783
                ],
                [
                    -0.00018,
                    -1.04744,
                    0.00133
                ],
                [
                    0.06235,
                    0.0,
                    -2.92235
                ]
            ]
        ]
    },
    "band_gap": 4.0599,
    "is_direct": false,
    "formula": "Cs2NaVO4"
}