{
    "mp_id": "mp-19334",
    "nelements": 3,
    "nsites": 20,
    "elements": [
        "Na",
        "O",
        "W"
    ],
    "structure": {
        "@module": "pymatgen.core.structure",
        "@class": "Structure",
        "charge": null,
        "lattice": {
            "matrix": [
                [
                    5.5915132,
                    -0.00040138,
                    2.455e-05
                ],
                [
                    -1.16858189,
                    5.49395786,
                    -0.00043065
                ],
                [
                    -2.75571227,
                    -2.28907489,
                    7.58121034
                ]
            ],
            "a": 5.591513214460183,
            "b": 5.616863607615123,
            "c": 8.38502022575855,
            "alpha": 101.46193464277202,
            "beta": 109.18524857055542,
            "gamma": 102.01214596149384,
            "volume": 232.88264721060443
        },
        "sites": [
            {
                "species": [
                    {
                        "element": "Na",
                        "occu": 1
                    }
                ],
                "abc": [
                    0.69411623,
                    0.48762626,
                    0.90345914
                ],
                "xyz": [
                    0.8216554083131564,
                    0.6106338879820115,
                    6.849120818240086
                ],
                "label": "Na",
                "properties": {}
            },
            {
                "species": [
                    {
                        "element": "Na",
                        "occu": 1
                    }
                ],
                "abc": [
                    0.87996574,
                    0.49275425,
                    0.29399879
                ],
                "xyz": [
                    3.5343402850190824,
                    2.0338326363078005,
                    2.2286760652366433
                ],
                "label": "Na",
                "properties": {}
            },
            {
                "species": [
                    {
                        "element": "Na",
                        "occu": 1
                    }
                ],
                "abc": [
                    0.6977539,
                    0.00210313,
                    0.39781983
                ],
                "xyz": [
                    2.8027654757908502,
                    -0.8993649404633489,
                    3.0159720327983526
                ],
                "label": "Na",
                "properties": {}
            },
            {
                "species": [
                    {
                        "element": "Na",
                        "occu": 1
                    }
                ],
                "abc": [
                    0.3022461,
                    0.99789687,
                    0.60218017
                ],
                "xyz": [
                    -1.1355464357908502,
                    4.10384653046335,
                    4.564832207201648
                ],
                "label": "Na",
                "properties": {}
            },
            {
                "species": [
                    {
                        "element": "Na",
                        "occu": 1
                    }
                ],
                "abc": [
                    0.30588377,
                    0.51237374,
                    0.09654086
                ],
                "xyz": [
                    0.8455636316868429,
                    2.5938477020179884,
                    0.731683421759915
                ],
                "label": "Na",
                "properties": {}
            },
            {
                "species": [
                    {
                        "element": "Na",
                        "occu": 1
                    }
                ],
                "abc": [
                    0.5,
                    0.5,
                    0.5
                ],
                "xyz": [
                    0.8336095199999995,
                    1.6022407950000002,
                    3.79040212
                ],
                "label": "Na",
                "properties": {}
            },
            {
                "species": [
                    {
                        "element": "Na",
                        "occu": 1
                    }
                ],
                "abc": [
                    0.5,
                    0.0,
                    0.0
                ],
                "xyz": [
                    2.7957566,
                    -0.00020069,
                    1.2275e-05
                ],
                "label": "Na",
                "properties": {}
            },
            {
                "species": [
                    {
                        "element": "Na",
                        "occu": 1
                    }
                ],
                "abc": [
                    0.12003426,
                    0.50724575,
                    0.70600121
                ],
                "xyz": [
                    -1.8671212450190824,
                    1.1706489536921993,
                    5.352128174763357
                ],
                "label": "Na",
                "properties": {}
            },
            {
                "species": [
                    {
                        "element": "W",
                        "occu": 1
                    }
                ],
                "abc": [
                    0.89787908,
                    0.99710878,
                    0.79343739
                ],
                "xyz": [
                    1.6688143140560863,
                    3.6614756222147435,
                    6.01480838324592
                ],
                "label": "W",
                "properties": {}
            },
            {
                "species": [
                    {
                        "element": "W",
                        "occu": 1
                    }
                ],
                "abc": [
                    0.10212092,
                    0.00289122,
                    0.20656261
                ],
                "xyz": [
                    -0.0015952740560865042,
                    -0.4569940322147434,
                    1.5659958567540804
                ],
                "label": "W",
                "properties": {}
            },
            {
                "species": [
                    {
                        "element": "O",
                        "occu": 1
                    }
                ],
                "abc": [
                    0.24303549,
                    0.21556494,
                    0.84416102
                ],
                "xyz": [
                    -1.2192340152691843,
                    -0.7481406471303358,
                    6.399675386928815
                ],
                "label": "O",
                "properties": {}
            },
            {
                "species": [
                    {
                        "element": "O",
                        "occu": 1
                    }
                ],
                "abc": [
                    0.75696451,
                    0.78443506,
                    0.15583898
                ],
                "xyz": [
                    2.8864530552691834,
                    3.952622237130336,
                    1.1811288530711845
                ],
                "label": "O",
                "properties": {}
            },
            {
                "species": [
                    {
                        "element": "O",
                        "occu": 1
                    }
                ],
                "abc": [
                    0.90716504,
                    0.77778968,
                    0.5962754
                ],
                "xyz": [
                    2.5203509253824743,
                    2.907860562294424,
                    4.520176543743676
                ],
                "label": "O",
                "properties": {}
            },
            {
                "species": [
                    {
                        "element": "O",
                        "occu": 1
                    }
                ],
                "abc": [
                    0.09283496,
                    0.22221032,
                    0.4037246
                ],
                "xyz": [
                    -0.853131885382475,
                    0.2966210277055764,
                    3.060627696256324
                ],
                "label": "O",
                "properties": {}
            },
            {
                "species": [
                    {
                        "element": "O",
                        "occu": 1
                    }
                ],
                "abc": [
                    0.43904424,
                    0.22244308,
                    0.24209679
                ],
                "xyz": [
                    1.5278296137695335,
                    0.6677390012529543,
                    1.8353016710524988
                ],
                "label": "O",
                "properties": {}
            },
            {
                "species": [
                    {
                        "element": "O",
                        "occu": 1
                    }
                ],
                "abc": [
                    0.56095576,
                    0.77755692,
                    0.75790321
                ],
                "xyz": [
                    0.13938942623046602,
                    2.5367425887470456,
                    5.7455025689475026
                ],
                "label": "O",
                "properties": {}
            },
            {
                "species": [
                    {
                        "element": "O",
                        "occu": 1
                    }
                ],
                "abc": [
                    0.07885737,
                    0.80527899,
                    0.96282917
                ],
                "xyz": [
                    -3.1533825765221235,
                    2.22014910842565,
                    7.299065601809008
                ],
                "label": "O",
                "properties": {}
            },
            {
                "species": [
                    {
                        "element": "O",
                        "occu": 1
                    }
                ],
                "abc": [
                    0.92114263,
                    0.19472101,
                    0.03717083
                ],
                "xyz": [
                    4.820601616522123,
                    0.9843324815743505,
                    0.2817386381909922
                ],
                "label": "O",
                "properties": {}
            },
            {
                "species": [
                    {
                        "element": "O",
                        "occu": 1
                    }
                ],
                "abc": [
                    0.26189301,
                    0.78779857,
                    0.3176388
                ],
                "xyz": [
                    -0.3315500580552415,
                    3.6009280259621743,
                    2.407753718964417
                ],
                "label": "O",
                "properties": {}
            },
            {
                "species": [
                    {
                        "element": "O",
                        "occu": 1
                    }
                ],
                "abc": [
                    0.73810699,
                    0.21220143,
                    0.6823612
                ],
                "xyz": [
                    1.9987690980552408,
                    -0.39644643596217444,
                    5.1730505210355835
                ],
                "label": "O",
                "properties": {}
            }
        ]
    },
    "spacegroup": {
        "source": "spglib",
        "symbol": "P-1",
        "number": 2,
        "point_group": "-1",
        "crystal_system": "triclinic",
        "hall": "-P 1"
    },
    "dielectric": {
        "epsilon_ionic": [
            [
                7.07715548,
                -2.15027015,
                0.36152601
            ],
            [
                -2.15027015,
                8.57638331,
                -2.38205469
            ],
            [
                0.36152601,
                -2.38205469,
                10.88399785
            ]
        ],
        "epsilon_ionic_avg": 8.845845546666666,
        "epsilon_ionic_eig": [
            5.295203201674472,
            8.464613646839096,
            12.77771979148643
        ],
        "epsilon_electronic": [
            [
                3.29186396,
                0.14455016,
                0.03323303
            ],
            [
                0.14455116,
                3.14923514,
                -0.07811727
            ],
            [
                0.03323828,
                -0.07811258,
                3.40405082
            ]
        ],
        "epsilon_electronic_avg": 3.281716639999999,
        "epsilon_electronic_eig": [
            3.040007798955299,
            3.3781978281494434,
            3.4269442928952554
        ]
    },
    "phonon": {
        "lowest_freq": -0.08886306380090951,
        "frequency": [
            -0.08886306380090951,
            -0.037062666996034256,
            -0.02341806956123113,
            2.0403767437109566,
            2.21205507403687,
            3.107213176545403,
            3.5495743618209263,
            4.150597798589815,
            4.765862591254599,
            4.950264478240528,
            5.186838932887929,
            5.36003377325072,
            5.361741760644181,
            5.649415755207518,
            6.029249292719989,
            6.1463072884597425,
            6.180907237900423,
            6.3919189459938925,
            6.556209453736282,
            6.78703822652389,
            6.832123083293894,
            7.130382958261257,
            7.259084651009765,
            7.309460380901722,
            7.421662449018998,
            7.609227837987865,
            7.8635828873818,
            8.323606378570652,
            8.46896092036877,
            8.503704725720125,
            8.687629346059447,
            8.810072920277479,
            8.948354374761234,
            9.221297691773316,
            9.382668375119383,
            9.8269713504927,
            9.920108033141558,
            10.581432326936616,
            10.604287075872136,
            10.845434269413996,
            11.158373785035511,
            11.17325884277796,
            12.08553009460538,
            12.633233457488355,
            12.77550834843528,
            13.303433590948247,
            13.616166678099855,
            14.25135687771485,
            14.269743130847802,
            14.410636035085421,
            15.479489005242769,
            15.863778409660885,
            16.576416950424434,
            17.020396403238525,
            17.959424523811155,
            18.844046255772184,
            19.128880602216405,
            19.469887288112183,
            21.93092065986382,
            22.526473373051036
        ]
    },
    "born_effective_charge": {
        "avg_abs_trace": 1.9265626666666669,
        "tensors": [
            [
                [
                    0.97085,
                    0.09522,
                    0.00323
                ],
                [
                    -0.01669,
                    1.39559,
                    0.17669
                ],
                [
                    0.05909,
                    0.0722,
                    0.74612
                ]
            ],
            [
                [
                    1.09621,
                    0.02077,
                    -0.12899
                ],
                [
                    0.05383,
                    1.34657,
                    0.11398
                ],
                [
                    -0.20859,
                    0.16901,
                    1.06631
                ]
            ],
            [
                [
                    1.12935,
                    -0.0003,
                    0.01699
                ],
                [
                    -0.01224,
                    0.57977,
                    -0.21525
                ],
                [
                    0.00663,
                    -0.18062,
                    1.2254
                ]
            ],
            [
                [
                    1.12936,
                    -0.00031,
                    0.01701
                ],
                [
                    -0.01224,
                    0.57977,
                    -0.21522
                ],
                [
                    0.00661,
                    -0.1806,
                    1.22535
                ]
            ],
            [
                [
                    0.97085,
                    0.09522,
                    0.00322
                ],
                [
                    -0.01667,
                    1.39557,
                    0.17668
                ],
                [
                    0.05905,
                    0.07222,
                    0.74613
                ]
            ],
            [
                [
                    0.7598,
                    -0.07857,
                    0.27986
                ],
                [
                    -0.09737,
                    1.32485,
                    0.04864
                ],
                [
                    0.29414,
                    0.11135,
                    1.30007
                ]
            ],
            [
                [
                    1.38574,
                    -0.17607,
                    -0.0668
                ],
                [
                    -0.01766,
                    0.54123,
                    -0.06415
                ],
                [
                    -0.01542,
                    -0.08067,
                    0.72227
                ]
            ],
            [
                [
                    1.09622,
                    0.02076,
                    -0.12898
                ],
                [
                    0.05385,
                    1.34656,
                    0.11399
                ],
                [
                    -0.2086,
                    0.16904,
                    1.06626
                ]
            ],
            [
                [
                    5.42187,
                    0.51972,
                    0.11398
                ],
                [
                    0.55564,
                    4.85202,
                    -0.37985
                ],
                [
                    0.12777,
                    -0.41511,
                    6.05157
                ]
            ],
            [
                [
                    5.42172,
                    0.51956,
                    0.11395
                ],
                [
                    0.55556,
                    4.85197,
                    -0.37972
                ],
                [
                    0.12801,
                    -0.41489,
                    6.05155
                ]
            ],
            [
                [
                    -2.6634,
                    -1.09545,
                    -0.2097
                ],
                [
                    -0.95307,
                    -1.87124,
                    -0.16947
                ],
                [
                    -0.17963,
                    -0.07157,
                    -1.27979
                ]
            ],
            [
                [
                    -2.66345,
                    -1.0955,
                    -0.20963
                ],
                [
                    -0.95299,
                    -1.87117,
                    -0.16935
                ],
                [
                    -0.17979,
                    -0.0716,
                    -1.27995
                ]
            ],
            [
                [
                    -1.55383,
                    0.34903,
                    0.77331
                ],
                [
                    0.23835,
                    -1.35776,
                    -0.50477
                ],
                [
                    0.89564,
                    -0.73447,
                    -2.78057
                ]
            ],
            [
                [
                    -1.55366,
                    0.34897,
                    0.77309
                ],
                [
                    0.23814,
                    -1.35755,
                    -0.5045
                ],
                [
                    0.89555,
                    -0.73452,
                    -2.78056
                ]
            ],
            [
                [
                    -2.59009,
                    -0.96193,
                    -0.34584
                ],
                [
                    -0.89924,
                    -1.82948,
                    -0.15582
                ],
                [
                    -0.36966,
                    -0.21947,
                    -1.39925
                ]
            ],
            [
                [
                    -2.59018,
                    -0.96197,
                    -0.34592
                ],
                [
                    -0.89898,
                    -1.82931,
                    -0.15593
                ],
                [
                    -0.36974,
                    -0.21941,
                    -1.39926
                ]
            ],
            [
                [
                    -1.39169,
                    0.46406,
                    0.18004
                ],
                [
                    0.41074,
                    -1.7631,
                    0.39221
                ],
                [
                    0.10375,
                    0.46876,
                    -2.95881
                ]
            ],
            [
                [
                    -1.39165,
                    0.46396,
                    0.17994
                ],
                [
                    0.41077,
                    -1.76312,
                    0.39211
                ],
                [
                    0.10365,
                    0.46891,
                    -2.95859
                ]
            ],
            [
                [
                    -1.49195,
                    0.73642,
                    -0.50941
                ],
                [
                    0.68006,
                    -2.28565,
                    0.74984
                ],
                [
                    -0.5743,
                    0.8958,
                    -1.68216
                ]
            ],
            [
                [
                    -1.49205,
                    0.73639,
                    -0.50935
                ],
                [
                    0.68022,
                    -2.28551,
                    0.74989
                ],
                [
                    -0.57416,
                    0.89566,
                    -1.68208
                ]
            ]
        ]
    },
    "band_gap": 3.7189000000000005,
    "is_direct": false,
    "formula": "Na4WO5"
}