{
    "mp_id": "mp-18856",
    "nelements": 2,
    "nsites": 32,
    "elements": [
        "Mo",
        "O"
    ],
    "structure": {
        "@module": "pymatgen.core.structure",
        "@class": "Structure",
        "charge": null,
        "lattice": {
            "matrix": [
                [
                    7.47285488,
                    0.0,
                    0.00501362
                ],
                [
                    0.0,
                    7.44700416,
                    0.0
                ],
                [
                    -7.29994969,
                    0.0,
                    7.64345434
                ]
            ],
            "a": 7.472856561846033,
            "b": 7.44700416,
            "c": 10.569373667545108,
            "alpha": 90.0,
            "beta": 133.64473108085167,
            "gamma": 90.0,
            "volume": 425.633703268943
        },
        "sites": [
            {
                "species": [
                    {
                        "element": "Mo",
                        "occu": 1
                    }
                ],
                "abc": [
                    0.4462482,
                    0.52162671,
                    0.71851148
                ],
                "xyz": [
                    -1.9103496166262248,
                    3.884556279337114,
                    5.494147009046307
                ],
                "label": "Mo",
                "properties": {}
            },
            {
                "species": [
                    {
                        "element": "Mo",
                        "occu": 1
                    }
                ],
                "abc": [
                    0.5537518,
                    0.02162671,
                    0.78148852
                ],
                "xyz": [
                    -1.5667200383737754,
                    0.1610541993371136,
                    5.976048120953693
                ],
                "label": "Mo",
                "properties": {}
            },
            {
                "species": [
                    {
                        "element": "Mo",
                        "occu": 1
                    }
                ],
                "abc": [
                    0.5537518,
                    0.47837329,
                    0.28148852
                ],
                "xyz": [
                    2.083254806626225,
                    3.5624478806628863,
                    2.154320950953693
                ],
                "label": "Mo",
                "properties": {}
            },
            {
                "species": [
                    {
                        "element": "Mo",
                        "occu": 1
                    }
                ],
                "abc": [
                    0.4462482,
                    0.97837329,
                    0.21851148
                ],
                "xyz": [
                    1.7396252283737745,
                    7.285949960662886,
                    1.6724198390463072
                ],
                "label": "Mo",
                "properties": {}
            },
            {
                "species": [
                    {
                        "element": "Mo",
                        "occu": 1
                    }
                ],
                "abc": [
                    0.98628228,
                    0.51427367,
                    0.21451927
                ],
                "xyz": [
                    5.8043644706199995,
                    3.829798159868467,
                    1.6446130898597855
                ],
                "label": "Mo",
                "properties": {}
            },
            {
                "species": [
                    {
                        "element": "Mo",
                        "occu": 1
                    }
                ],
                "abc": [
                    0.01371772,
                    0.01427367,
                    0.28548073
                ],
                "xyz": [
                    -1.9814844356200003,
                    0.1062960798684672,
                    2.1821277001402146
                ],
                "label": "Mo",
                "properties": {}
            },
            {
                "species": [
                    {
                        "element": "Mo",
                        "occu": 1
                    }
                ],
                "abc": [
                    0.01371772,
                    0.48572633,
                    0.78548073
                ],
                "xyz": [
                    -5.63145928062,
                    3.6172060001315325,
                    6.003854870140215
                ],
                "label": "Mo",
                "properties": {}
            },
            {
                "species": [
                    {
                        "element": "Mo",
                        "occu": 1
                    }
                ],
                "abc": [
                    0.98628228,
                    0.98572633,
                    0.71451927
                ],
                "xyz": [
                    2.1543896256199995,
                    7.340708080131533,
                    5.466340259859786
                ],
                "label": "Mo",
                "properties": {}
            },
            {
                "species": [
                    {
                        "element": "O",
                        "occu": 1
                    }
                ],
                "abc": [
                    0.28960843,
                    0.96944165,
                    0.50464168
                ],
                "xyz": [
                    -1.519657106062441,
                    7.219436000427264,
                    3.8586576257577074
                ],
                "label": "O",
                "properties": {}
            },
            {
                "species": [
                    {
                        "element": "O",
                        "occu": 1
                    }
                ],
                "abc": [
                    0.71039157,
                    0.46944165,
                    0.99535832
                ],
                "xyz": [
                    -1.95741254893756,
                    3.4959339204272637,
                    7.611537504242293
                ],
                "label": "O",
                "properties": {}
            },
            {
                "species": [
                    {
                        "element": "O",
                        "occu": 1
                    }
                ],
                "abc": [
                    0.71039157,
                    0.03055835,
                    0.49535832
                ],
                "xyz": [
                    1.69256229606244,
                    0.227568159572736,
                    3.7898103342422926
                ],
                "label": "O",
                "properties": {}
            },
            {
                "species": [
                    {
                        "element": "O",
                        "occu": 1
                    }
                ],
                "abc": [
                    0.28960843,
                    0.53055835,
                    0.00464168
                ],
                "xyz": [
                    2.130317738937559,
                    3.9510702395727355,
                    0.03693045575770779
                ],
                "label": "O",
                "properties": {}
            },
            {
                "species": [
                    {
                        "element": "O",
                        "occu": 1
                    }
                ],
                "abc": [
                    0.2799008,
                    0.53892939,
                    0.49391832
                ],
                "xyz": [
                    -1.513920827773417,
                    4.013409409276262,
                    3.776645442858405
                ],
                "label": "O",
                "properties": {}
            },
            {
                "species": [
                    {
                        "element": "O",
                        "occu": 1
                    }
                ],
                "abc": [
                    0.7200992,
                    0.03892939,
                    0.00608168
                ],
                "xyz": [
                    5.3368008627734165,
                    0.2899073292762624,
                    0.0500953471415952
                ],
                "label": "O",
                "properties": {}
            },
            {
                "species": [
                    {
                        "element": "O",
                        "occu": 1
                    }
                ],
                "abc": [
                    0.7200992,
                    0.46107061,
                    0.50608168
                ],
                "xyz": [
                    1.686826017773417,
                    3.433594750723737,
                    3.8718225171415948
                ],
                "label": "O",
                "properties": {}
            },
            {
                "species": [
                    {
                        "element": "O",
                        "occu": 1
                    }
                ],
                "abc": [
                    0.2799008,
                    0.96107061,
                    0.99391832
                ],
                "xyz": [
                    -5.163895672773417,
                    7.157096830723738,
                    7.598372612858405
                ],
                "label": "O",
                "properties": {}
            },
            {
                "species": [
                    {
                        "element": "O",
                        "occu": 1
                    }
                ],
                "abc": [
                    0.79274398,
                    0.9578819,
                    0.78951476
                ],
                "xyz": [
                    0.16064269202119874,
                    7.133350494088703,
                    6.038594535889066
                ],
                "label": "O",
                "properties": {}
            },
            {
                "species": [
                    {
                        "element": "O",
                        "occu": 1
                    }
                ],
                "abc": [
                    0.20725602,
                    0.4578819,
                    0.71048524
                ],
                "xyz": [
                    -3.637712347021198,
                    3.409848414088704,
                    5.431600594110934
                ],
                "label": "O",
                "properties": {}
            },
            {
                "species": [
                    {
                        "element": "O",
                        "occu": 1
                    }
                ],
                "abc": [
                    0.20725602,
                    0.0421181,
                    0.21048524
                ],
                "xyz": [
                    0.01226249797880219,
                    0.31365366591129595,
                    1.609873424110934
                ],
                "label": "O",
                "properties": {}
            },
            {
                "species": [
                    {
                        "element": "O",
                        "occu": 1
                    }
                ],
                "abc": [
                    0.79274398,
                    0.5421181,
                    0.28951476
                ],
                "xyz": [
                    3.8106175370211983,
                    4.037155745911297,
                    2.216867365889066
                ],
                "label": "O",
                "properties": {}
            },
            {
                "species": [
                    {
                        "element": "O",
                        "occu": 1
                    }
                ],
                "abc": [
                    0.78349016,
                    0.54260824,
                    0.78840597
                ],
                "xyz": [
                    0.09958434929233118,
                    4.040805820530278,
                    6.030073155014389
                ],
                "label": "O",
                "properties": {}
            },
            {
                "species": [
                    {
                        "element": "O",
                        "occu": 1
                    }
                ],
                "abc": [
                    0.21650984,
                    0.04260824,
                    0.71159403
                ],
                "xyz": [
                    -3.5766540042923314,
                    0.3173037405302784,
                    5.440121974985611
                ],
                "label": "O",
                "properties": {}
            },
            {
                "species": [
                    {
                        "element": "O",
                        "occu": 1
                    }
                ],
                "abc": [
                    0.21650984,
                    0.45739176,
                    0.21159403
                ],
                "xyz": [
                    0.07332084070766842,
                    3.4061983394697215,
                    1.6183948049856107
                ],
                "label": "O",
                "properties": {}
            },
            {
                "species": [
                    {
                        "element": "O",
                        "occu": 1
                    }
                ],
                "abc": [
                    0.78349016,
                    0.95739176,
                    0.28840597
                ],
                "xyz": [
                    3.7495591942923316,
                    7.129700419469722,
                    2.208345985014389
                ],
                "label": "O",
                "properties": {}
            },
            {
                "species": [
                    {
                        "element": "O",
                        "occu": 1
                    }
                ],
                "abc": [
                    0.99753437,
                    0.74442538,
                    0.70897277
                ],
                "xyz": [
                    2.2789640322422837,
                    5.543738901669581,
                    5.424002254066441
                ],
                "label": "O",
                "properties": {}
            },
            {
                "species": [
                    {
                        "element": "O",
                        "occu": 1
                    }
                ],
                "abc": [
                    0.00246563,
                    0.24442538,
                    0.79102723
                ],
                "xyz": [
                    -5.756033687242284,
                    1.8202368216695808,
                    6.046192875933559
                ],
                "label": "O",
                "properties": {}
            },
            {
                "species": [
                    {
                        "element": "O",
                        "occu": 1
                    }
                ],
                "abc": [
                    0.00246563,
                    0.25557462,
                    0.29102723
                ],
                "xyz": [
                    -2.1060588422422843,
                    1.9032652583304188,
                    2.224465705933559
                ],
                "label": "O",
                "properties": {}
            },
            {
                "species": [
                    {
                        "element": "O",
                        "occu": 1
                    }
                ],
                "abc": [
                    0.99753437,
                    0.75557462,
                    0.20897277
                ],
                "xyz": [
                    5.928938877242285,
                    5.626767338330419,
                    1.6022750840664413
                ],
                "label": "O",
                "properties": {}
            },
            {
                "species": [
                    {
                        "element": "O",
                        "occu": 1
                    }
                ],
                "abc": [
                    0.47560322,
                    0.74486676,
                    0.27486925
                ],
                "xyz": [
                    1.547582147192681,
                    5.547025860365721,
                    2.1033350556609016
                ],
                "label": "O",
                "properties": {}
            },
            {
                "species": [
                    {
                        "element": "O",
                        "occu": 1
                    }
                ],
                "abc": [
                    0.52439678,
                    0.24486676,
                    0.22513075
                ],
                "xyz": [
                    2.2752978878073193,
                    1.8235237803657214,
                    1.7234057343390985
                ],
                "label": "O",
                "properties": {}
            },
            {
                "species": [
                    {
                        "element": "O",
                        "occu": 1
                    }
                ],
                "abc": [
                    0.52439678,
                    0.25513324,
                    0.72513075
                ],
                "xyz": [
                    -1.3746769571926811,
                    1.8999782996342782,
                    5.545132904339099
                ],
                "label": "O",
                "properties": {}
            },
            {
                "species": [
                    {
                        "element": "O",
                        "occu": 1
                    }
                ],
                "abc": [
                    0.47560322,
                    0.75513324,
                    0.77486925
                ],
                "xyz": [
                    -2.102392697807319,
                    5.6234803796342785,
                    5.925062225660901
                ],
                "label": "O",
                "properties": {}
            }
        ]
    },
    "spacegroup": {
        "source": "spglib",
        "symbol": "P2_1/c",
        "number": 14,
        "point_group": "2/m",
        "crystal_system": "monoclinic",
        "hall": "-P 2ybc"
    },
    "dielectric": {
        "epsilon_ionic": [
            [
                18.94988903,
                2e-08,
                0.4881763
            ],
            [
                2e-08,
                26.15450633,
                1.5e-07
            ],
            [
                0.4881763,
                1.5e-07,
                8.75756888
            ]
        ],
        "epsilon_ionic_avg": 17.953988080000002,
        "epsilon_ionic_eig": [
            18.973217563240645,
            8.734240346759362,
            26.154506329999997
        ],
        "epsilon_electronic": [
            [
                6.92221973,
                0.0,
                0.07367795
            ],
            [
                0.0,
                7.14974088,
                0.0
            ],
            [
                0.07367938,
                0.0,
                6.18633467
            ]
        ],
        "epsilon_electronic_avg": 6.752765093333333,
        "epsilon_electronic_eig": [
            6.929524120118569,
            6.179030279881431,
            7.14974088
        ]
    },
    "phonon": {
        "lowest_freq": -0.03470710341077026,
        "frequency": [
            -0.03470710341077026,
            -0.02061685170262273,
            -0.019728792681894126,
            1.5600721164240632,
            2.270884607281811,
            2.418441169040964,
            2.5986192005616995,
            2.615805831746526,
            2.8082749362091017,
            2.968518105297603,
            3.1060141334983116,
            3.1983324444494925,
            3.636841846225047,
            3.669294630338869,
            3.965697496631895,
            4.372897507821156,
            4.967591511400531,
            5.380724470096185,
            5.820451482496698,
            5.998467521515426,
            6.017528074270558,
            6.292662358455958,
            6.301872091680532,
            6.413736700706898,
            6.42551144265491,
            6.665012931660746,
            6.704044756697755,
            6.775546257039672,
            6.784491493230034,
            6.838593394086404,
            6.953739123237143,
            7.349181499396647,
            7.386533150419527,
            7.62054421486329,
            7.679190799243516,
            7.918149803394887,
            7.924494861898595,
            8.087346743032612,
            8.224041260196966,
            8.50074291096679,
            8.550343616483595,
            8.564343223550953,
            8.86770891444318,
            8.908159045276864,
            9.065188687238209,
            9.14165401037832,
            9.503239637804946,
            9.552047359685126,
            9.570042369242906,
            9.570725768348938,
            9.625627269641441,
            9.74539746333905,
            10.012364797471612,
            10.095480878430813,
            10.299542958070857,
            10.340193459308074,
            10.54530519599654,
            10.633024309954864,
            11.283672037960836,
            11.330583601683067,
            11.615536758151366,
            11.843677080701525,
            11.859954903886326,
            11.974956110373856,
            12.080005317656916,
            12.114367876421953,
            12.16458065876698,
            12.275827022897749,
            12.533082228090125,
            12.538698304121713,
            13.10284272252587,
            13.408916164744538,
            18.284352264906673,
            18.506771446784942,
            18.92235319435646,
            19.067491439645124,
            19.255212762922675,
            19.261413341441113,
            19.966570622835956,
            20.27268471911022,
            21.821075269768393,
            21.887878788111124,
            22.02374814892598,
            22.207087111820034,
            22.858449659343087,
            23.1551449186121,
            23.94007333907203,
            24.402951470366638,
            24.686977889783524,
            27.770113423179488,
            27.856908979650772,
            28.323209827835175,
            28.747534227716173,
            28.851828851566196,
            28.896036227359087,
            29.591952737328135
        ]
    },
    "born_effective_charge": {
        "avg_abs_trace": 4.131494791666666,
        "tensors": [
            [
                [
                    8.47811,
                    1.23871,
                    0.81942
                ],
                [
                    -1.07222,
                    8.89947,
                    1.50563
                ],
                [
                    -0.80973,
                    -0.49524,
                    7.47
                ]
            ],
            [
                [
                    8.47841,
                    -1.23887,
                    0.81993
                ],
                [
                    1.07222,
                    8.89947,
                    -1.50563
                ],
                [
                    -0.81018,
                    0.49544,
                    7.46941
                ]
            ],
            [
                [
                    8.47841,
                    1.23887,
                    0.81993
                ],
                [
                    -1.07266,
                    8.90288,
                    1.50581
                ],
                [
                    -0.81018,
                    -0.49544,
                    7.46941
                ]
            ],
            [
                [
                    8.47811,
                    -1.23871,
                    0.81942
                ],
                [
                    1.07266,
                    8.90288,
                    -1.50581
                ],
                [
                    -0.80973,
                    0.49524,
                    7.47
                ]
            ],
            [
                [
                    8.48483,
                    -1.17627,
                    -0.59693
                ],
                [
                    0.83051,
                    8.93739,
                    -0.17939
                ],
                [
                    1.09121,
                    0.84522,
                    7.30518
                ]
            ],
            [
                [
                    8.48473,
                    1.17601,
                    -0.59616
                ],
                [
                    -0.83051,
                    8.93739,
                    0.17939
                ],
                [
                    1.09125,
                    -0.84476,
                    7.3045
                ]
            ],
            [
                [
                    8.48473,
                    -1.17601,
                    -0.59616
                ],
                [
                    0.83043,
                    8.94095,
                    -0.17979
                ],
                [
                    1.09125,
                    0.84476,
                    7.3045
                ]
            ],
            [
                [
                    8.48483,
                    1.17627,
                    -0.59693
                ],
                [
                    -0.83043,
                    8.94095,
                    0.17979
                ],
                [
                    1.09121,
                    -0.84522,
                    7.30518
                ]
            ],
            [
                [
                    -1.11401,
                    0.05778,
                    -0.47893
                ],
                [
                    0.16616,
                    -1.06514,
                    0.58073
                ],
                [
                    -0.77117,
                    0.27948,
                    -5.35967
                ]
            ],
            [
                [
                    -1.11347,
                    -0.05756,
                    -0.47806
                ],
                [
                    -0.16616,
                    -1.06514,
                    -0.58073
                ],
                [
                    -0.77148,
                    -0.27939,
                    -5.36008
                ]
            ],
            [
                [
                    -1.11347,
                    0.05756,
                    -0.47806
                ],
                [
                    0.16618,
                    -1.06603,
                    0.58067
                ],
                [
                    -0.77148,
                    0.27939,
                    -5.36008
                ]
            ],
            [
                [
                    -1.11401,
                    -0.05778,
                    -0.47893
                ],
                [
                    -0.16618,
                    -1.06603,
                    -0.58067
                ],
                [
                    -0.77117,
                    -0.27948,
                    -5.35967
                ]
            ],
            [
                [
                    -1.04743,
                    -0.03944,
                    0.29559
                ],
                [
                    0.08007,
                    -0.96777,
                    -0.51022
                ],
                [
                    0.54123,
                    -0.02133,
                    -5.52129
                ]
            ],
            [
                [
                    -1.04752,
                    0.0396,
                    0.2954
                ],
                [
                    -0.08007,
                    -0.96777,
                    0.51022
                ],
                [
                    0.54101,
                    0.02125,
                    -5.52096
                ]
            ],
            [
                [
                    -1.04752,
                    -0.0396,
                    0.2954
                ],
                [
                    0.08007,
                    -0.96807,
                    -0.50975
                ],
                [
                    0.54101,
                    -0.02125,
                    -5.52096
                ]
            ],
            [
                [
                    -1.04743,
                    0.03944,
                    0.29559
                ],
                [
                    -0.08007,
                    -0.96807,
                    0.50975
                ],
                [
                    0.54123,
                    0.02133,
                    -5.52129
                ]
            ],
            [
                [
                    -6.33667,
                    0.67834,
                    0.61807
                ],
                [
                    0.34865,
                    -1.19313,
                    -0.00243
                ],
                [
                    0.30237,
                    -0.10261,
                    -0.9137
                ]
            ],
            [
                [
                    -6.33648,
                    -0.67826,
                    0.61756
                ],
                [
                    -0.34865,
                    -1.19313,
                    0.00243
                ],
                [
                    0.30194,
                    0.10274,
                    -0.91369
                ]
            ],
            [
                [
                    -6.33648,
                    0.67826,
                    0.61756
                ],
                [
                    0.34929,
                    -1.19433,
                    -0.00225
                ],
                [
                    0.30194,
                    -0.10274,
                    -0.91369
                ]
            ],
            [
                [
                    -6.33667,
                    -0.67834,
                    0.61807
                ],
                [
                    -0.34929,
                    -1.19433,
                    0.00225
                ],
                [
                    0.30237,
                    0.10261,
                    -0.9137
                ]
            ],
            [
                [
                    -6.37989,
                    0.59896,
                    -0.67554
                ],
                [
                    0.32382,
                    -1.19366,
                    0.0955
                ],
                [
                    -0.37526,
                    0.12,
                    -0.93605
                ]
            ],
            [
                [
                    -6.38003,
                    -0.599,
                    -0.67523
                ],
                [
                    -0.32382,
                    -1.19366,
                    -0.0955
                ],
                [
                    -0.37482,
                    -0.12005,
                    -0.93623
                ]
            ],
            [
                [
                    -6.38003,
                    0.599,
                    -0.67523
                ],
                [
                    0.32289,
                    -1.19243,
                    0.09565
                ],
                [
                    -0.37482,
                    0.12005,
                    -0.93623
                ]
            ],
            [
                [
                    -6.37989,
                    -0.59896,
                    -0.67554
                ],
                [
                    -0.32289,
                    -1.19243,
                    -0.09565
                ],
                [
                    -0.37526,
                    -0.12,
                    -0.93605
                ]
            ],
            [
                [
                    -1.04036,
                    -0.27402,
                    0.27112
                ],
                [
                    -0.27565,
                    -6.69881,
                    0.70922
                ],
                [
                    0.0347,
                    0.48649,
                    -0.98325
                ]
            ],
            [
                [
                    -1.04046,
                    0.27394,
                    0.2711
                ],
                [
                    0.27565,
                    -6.69881,
                    -0.70922
                ],
                [
                    0.03499,
                    -0.48586,
                    -0.98357
                ]
            ],
            [
                [
                    -1.04046,
                    -0.27394,
                    0.2711
                ],
                [
                    -0.27604,
                    -6.69678,
                    0.70951
                ],
                [
                    0.03499,
                    0.48586,
                    -0.98357
                ]
            ],
            [
                [
                    -1.04036,
                    0.27402,
                    0.27112
                ],
                [
                    0.27604,
                    -6.69678,
                    -0.70951
                ],
                [
                    0.0347,
                    -0.48649,
                    -0.98325
                ]
            ],
            [
                [
                    -1.04498,
                    0.19224,
                    -0.25365
                ],
                [
                    0.31591,
                    -6.72357,
                    0.9655
                ],
                [
                    -0.01309,
                    0.46797,
                    -1.06035
                ]
            ],
            [
                [
                    -1.0448,
                    -0.19234,
                    -0.25369
                ],
                [
                    -0.31591,
                    -6.72357,
                    -0.9655
                ],
                [
                    -0.01297,
                    -0.4678,
                    -1.06025
                ]
            ],
            [
                [
                    -1.0448,
                    0.19234,
                    -0.25369
                ],
                [
                    0.31625,
                    -6.72098,
                    0.96531
                ],
                [
                    -0.01297,
                    0.4678,
                    -1.06025
                ]
            ],
            [
                [
                    -1.04498,
                    -0.19224,
                    -0.25365
                ],
                [
                    -0.31625,
                    -6.72098,
                    -0.96531
                ],
                [
                    -0.01309,
                    -0.46797,
                    -1.06035
                ]
            ]
        ]
    },
    "band_gap": 1.4421000000000002,
    "is_direct": false,
    "formula": "MoO3"
}