{
    "mp_id": "mp-1192417",
    "nelements": 4,
    "nsites": 28,
    "elements": [
        "Ba",
        "Ge",
        "O",
        "Pb"
    ],
    "structure": {
        "@module": "pymatgen.core.structure",
        "@class": "Structure",
        "charge": null,
        "lattice": {
            "matrix": [
                [
                    6.27312704,
                    0.0,
                    0.0
                ],
                [
                    0.0,
                    7.56265088,
                    0.0
                ],
                [
                    0.0,
                    0.0,
                    10.24364849
                ]
            ],
            "a": 6.27312704,
            "b": 7.56265088,
            "c": 10.24364849,
            "alpha": 90.0,
            "beta": 90.0,
            "gamma": 90.0,
            "volume": 485.97373975702885
        },
        "sites": [
            {
                "species": [
                    {
                        "element": "Ba",
                        "occu": 1
                    }
                ],
                "abc": [
                    0.474412,
                    0.74769498,
                    0.79048911
                ],
                "xyz": [
                    2.97604674530048,
                    5.654556098468582,
                    8.097492578012943
                ],
                "label": "Ba",
                "properties": {}
            },
            {
                "species": [
                    {
                        "element": "Ba",
                        "occu": 1
                    }
                ],
                "abc": [
                    0.974412,
                    0.75230502,
                    0.20951089
                ],
                "xyz": [
                    6.11261026530048,
                    5.689420221531417,
                    2.1461559119870564
                ],
                "label": "Ba",
                "properties": {}
            },
            {
                "species": [
                    {
                        "element": "Ba",
                        "occu": 1
                    }
                ],
                "abc": [
                    0.025588,
                    0.25230502,
                    0.29048911
                ],
                "xyz": [
                    0.16051677469952,
                    1.9080947815314175,
                    2.9756683330129436
                ],
                "label": "Ba",
                "properties": {}
            },
            {
                "species": [
                    {
                        "element": "Ba",
                        "occu": 1
                    }
                ],
                "abc": [
                    0.525588,
                    0.24769498,
                    0.70951089
                ],
                "xyz": [
                    3.2970802946995206,
                    1.8732306584685823,
                    7.267980156987056
                ],
                "label": "Ba",
                "properties": {}
            },
            {
                "species": [
                    {
                        "element": "Ge",
                        "occu": 1
                    }
                ],
                "abc": [
                    0.51969472,
                    0.96087107,
                    0.08943669
                ],
                "xyz": [
                    3.260111000577229,
                    7.2667324431020415,
                    0.9161580144690981
                ],
                "label": "Ge",
                "properties": {}
            },
            {
                "species": [
                    {
                        "element": "Ge",
                        "occu": 1
                    }
                ],
                "abc": [
                    0.01969472,
                    0.53912893,
                    0.91056331
                ],
                "xyz": [
                    0.1235474805772288,
                    4.077243876897958,
                    9.327490475530903
                ],
                "label": "Ge",
                "properties": {}
            },
            {
                "species": [
                    {
                        "element": "Ge",
                        "occu": 1
                    }
                ],
                "abc": [
                    0.98030528,
                    0.03912893,
                    0.58943669
                ],
                "xyz": [
                    6.149579559422771,
                    0.2959184368979584,
                    6.037982259469098
                ],
                "label": "Ge",
                "properties": {}
            },
            {
                "species": [
                    {
                        "element": "Ge",
                        "occu": 1
                    }
                ],
                "abc": [
                    0.48030528,
                    0.46087107,
                    0.41056331
                ],
                "xyz": [
                    3.013016039422771,
                    3.485407003102041,
                    4.205666230530902
                ],
                "label": "Ge",
                "properties": {}
            },
            {
                "species": [
                    {
                        "element": "Pb",
                        "occu": 1
                    }
                ],
                "abc": [
                    0.42654833,
                    0.94094028,
                    0.40735243
                ],
                "xyz": [
                    2.6757918627898434,
                    7.116002836569446,
                    4.1727751044673305
                ],
                "label": "Pb",
                "properties": {}
            },
            {
                "species": [
                    {
                        "element": "Pb",
                        "occu": 1
                    }
                ],
                "abc": [
                    0.92654833,
                    0.55905972,
                    0.59264757
                ],
                "xyz": [
                    5.8123553827898435,
                    4.227973483430554,
                    6.0708733855326695
                ],
                "label": "Pb",
                "properties": {}
            },
            {
                "species": [
                    {
                        "element": "Pb",
                        "occu": 1
                    }
                ],
                "abc": [
                    0.07345167,
                    0.05905972,
                    0.90735243
                ],
                "xyz": [
                    0.4607716572101568,
                    0.4466480434305536,
                    9.294599349467331
                ],
                "label": "Pb",
                "properties": {}
            },
            {
                "species": [
                    {
                        "element": "Pb",
                        "occu": 1
                    }
                ],
                "abc": [
                    0.57345167,
                    0.44094028,
                    0.09264757
                ],
                "xyz": [
                    3.597335177210157,
                    3.3346773965694463,
                    0.9490491405326693
                ],
                "label": "Pb",
                "properties": {}
            },
            {
                "species": [
                    {
                        "element": "O",
                        "occu": 1
                    }
                ],
                "abc": [
                    0.43774042,
                    0.05761764,
                    0.93698099
                ],
                "xyz": [
                    2.746001265202957,
                    0.43574209584952317,
                    9.598103903372206
                ],
                "label": "O",
                "properties": {}
            },
            {
                "species": [
                    {
                        "element": "O",
                        "occu": 1
                    }
                ],
                "abc": [
                    0.93774042,
                    0.44238236,
                    0.06301901
                ],
                "xyz": [
                    5.882564785202957,
                    3.3455833441504765,
                    0.6455445866277949
                ],
                "label": "O",
                "properties": {}
            },
            {
                "species": [
                    {
                        "element": "O",
                        "occu": 1
                    }
                ],
                "abc": [
                    0.06225958,
                    0.94238236,
                    0.43698099
                ],
                "xyz": [
                    0.3905622547970432,
                    7.126908784150476,
                    4.4762796583722055
                ],
                "label": "O",
                "properties": {}
            },
            {
                "species": [
                    {
                        "element": "O",
                        "occu": 1
                    }
                ],
                "abc": [
                    0.56225958,
                    0.55761764,
                    0.56301901
                ],
                "xyz": [
                    3.5271257747970433,
                    4.217067535849523,
                    5.7673688316277945
                ],
                "label": "O",
                "properties": {}
            },
            {
                "species": [
                    {
                        "element": "O",
                        "occu": 1
                    }
                ],
                "abc": [
                    0.74324708,
                    0.05746099,
                    0.16745464
                ],
                "xyz": [
                    4.662483354949043,
                    0.4345574065891712,
                    1.7153464701794934
                ],
                "label": "O",
                "properties": {}
            },
            {
                "species": [
                    {
                        "element": "O",
                        "occu": 1
                    }
                ],
                "abc": [
                    0.24324708,
                    0.44253901,
                    0.83254536
                ],
                "xyz": [
                    1.5259198349490433,
                    3.3467680334108287,
                    8.528302019820506
                ],
                "label": "O",
                "properties": {}
            },
            {
                "species": [
                    {
                        "element": "O",
                        "occu": 1
                    }
                ],
                "abc": [
                    0.75675292,
                    0.94253901,
                    0.66745464
                ],
                "xyz": [
                    4.747207205050957,
                    7.1280934734108286,
                    6.837170715179494
                ],
                "label": "O",
                "properties": {}
            },
            {
                "species": [
                    {
                        "element": "O",
                        "occu": 1
                    }
                ],
                "abc": [
                    0.25675292,
                    0.55746099,
                    0.33254536
                ],
                "xyz": [
                    1.610643685050957,
                    4.215882846589171,
                    3.4064777748205066
                ],
                "label": "O",
                "properties": {}
            },
            {
                "species": [
                    {
                        "element": "O",
                        "occu": 1
                    }
                ],
                "abc": [
                    0.59590327,
                    0.73661455,
                    0.05178774
                ],
                "xyz": [
                    3.7381769162614207,
                    5.570758674778304,
                    0.5304954046515126
                ],
                "label": "O",
                "properties": {}
            },
            {
                "species": [
                    {
                        "element": "O",
                        "occu": 1
                    }
                ],
                "abc": [
                    0.09590327,
                    0.76338545,
                    0.94821226
                ],
                "xyz": [
                    0.6016133962614209,
                    5.7732176452216954,
                    9.713153085348488
                ],
                "label": "O",
                "properties": {}
            },
            {
                "species": [
                    {
                        "element": "O",
                        "occu": 1
                    }
                ],
                "abc": [
                    0.90409673,
                    0.26338545,
                    0.55178774
                ],
                "xyz": [
                    5.67151364373858,
                    1.991892205221696,
                    5.6523196496515125
                ],
                "label": "O",
                "properties": {}
            },
            {
                "species": [
                    {
                        "element": "O",
                        "occu": 1
                    }
                ],
                "abc": [
                    0.40409673,
                    0.23661455,
                    0.44821226
                ],
                "xyz": [
                    2.5349501237385796,
                    1.789433234778304,
                    4.5913288403484875
                ],
                "label": "O",
                "properties": {}
            },
            {
                "species": [
                    {
                        "element": "O",
                        "occu": 1
                    }
                ],
                "abc": [
                    0.29632916,
                    0.98574686,
                    0.19871338
                ],
                "xyz": [
                    1.8589104663364864,
                    7.454859358236236,
                    2.0355500149797963
                ],
                "label": "O",
                "properties": {}
            },
            {
                "species": [
                    {
                        "element": "O",
                        "occu": 1
                    }
                ],
                "abc": [
                    0.79632916,
                    0.51425314,
                    0.80128662
                ],
                "xyz": [
                    4.995473986336487,
                    3.889116961763763,
                    8.208098475020202
                ],
                "label": "O",
                "properties": {}
            },
            {
                "species": [
                    {
                        "element": "O",
                        "occu": 1
                    }
                ],
                "abc": [
                    0.20367084,
                    0.01425314,
                    0.69871338
                ],
                "xyz": [
                    1.2776530536635136,
                    0.10779152176376319,
                    7.157374259979797
                ],
                "label": "O",
                "properties": {}
            },
            {
                "species": [
                    {
                        "element": "O",
                        "occu": 1
                    }
                ],
                "abc": [
                    0.70367084,
                    0.48574686,
                    0.30128662
                ],
                "xyz": [
                    4.414216573663514,
                    3.6735339182362368,
                    3.0862742300202037
                ],
                "label": "O",
                "properties": {}
            }
        ]
    },
    "spacegroup": {
        "source": "spglib",
        "symbol": "P2_12_12_1",
        "number": 19,
        "point_group": "222",
        "crystal_system": "orthorhombic",
        "hall": "P 2ac 2ab"
    },
    "dielectric": {
        "epsilon_ionic": [
            [
                9.63939618,
                -2e-08,
                -1e-08
            ],
            [
                -2e-08,
                10.74414541,
                0.0
            ],
            [
                -1e-08,
                0.0,
                12.28252257
            ]
        ],
        "epsilon_ionic_avg": 10.888688053333334,
        "epsilon_ionic_eig": [
            9.63939618,
            10.744145410000002,
            12.282522570000001
        ],
        "epsilon_electronic": [
            [
                4.1603852,
                0.0,
                0.0
            ],
            [
                0.0,
                4.32404655,
                0.0
            ],
            [
                0.0,
                0.0,
                4.29808644
            ]
        ],
        "epsilon_electronic_avg": 4.260839396666667,
        "epsilon_electronic_eig": [
            4.1603852,
            4.32404655,
            4.29808644
        ]
    },
    "phonon": {
        "lowest_freq": -0.06301947949103998,
        "frequency": [
            -0.06301947949103998,
            -0.03538048838177534,
            -0.03474941908772528,
            0.998719896580629,
            1.2486356964872962,
            1.2635715232749023,
            1.40232216295597,
            1.518584870503222,
            1.69033458329447,
            1.807361933391168,
            1.9055464256910168,
            2.0161254617449678,
            2.1027677562106244,
            2.391599815421878,
            2.3966603025785376,
            2.6242491008039566,
            2.721418517411546,
            2.8425213132644918,
            2.9299429078338477,
            3.162088115105903,
            3.2268845440189096,
            3.382458739425133,
            3.554812891468295,
            3.616650945244709,
            3.6220465053753497,
            3.65307010033333,
            4.238398265077695,
            4.254077057507817,
            4.424756063003084,
            4.574653301854003,
            4.765962109474864,
            4.791219879579345,
            4.888300497656139,
            5.082328894887165,
            5.458699358600861,
            5.514068042334157,
            5.54352929880145,
            5.6758787994766005,
            5.841640609570068,
            5.8500291932705455,
            5.909920553480972,
            5.993870495216794,
            6.045470308775661,
            6.072685983684328,
            6.535417638536153,
            6.890250953354684,
            6.906249582146404,
            7.317728858205149,
            8.045396207752075,
            8.140139625505077,
            8.648229683121501,
            8.772089777099373,
            9.068908996781795,
            9.366553408452418,
            9.800663355800769,
            9.892100655351996,
            9.98686542812207,
            10.173787024951137,
            10.682964640891024,
            10.735272183478843,
            10.835724189354941,
            10.932503071146456,
            11.110320167085153,
            11.238005628936317,
            11.391567632817985,
            11.437188179701293,
            12.341733596499495,
            12.560115223676888,
            19.57726326160988,
            19.627696640859714,
            19.94917123660108,
            20.28087649701276,
            20.410934224697957,
            20.717509807823685,
            20.74972686219418,
            20.94704268176929,
            21.284674649036784,
            21.373834085829944,
            21.443109231256486,
            21.728385976557988,
            22.516608237650495,
            22.58358415513657,
            22.661823039016536,
            22.90371970005592
        ]
    },
    "born_effective_charge": {
        "avg_abs_trace": 2.5449249999999997,
        "tensors": [
            [
                [
                    2.85532,
                    -0.09058,
                    -0.32814
                ],
                [
                    -0.04677,
                    2.67878,
                    0.01776
                ],
                [
                    -0.34935,
                    0.0028,
                    2.71895
                ]
            ],
            [
                [
                    2.85532,
                    0.09058,
                    0.32814
                ],
                [
                    0.04665,
                    2.67878,
                    0.01772
                ],
                [
                    0.34934,
                    0.00274,
                    2.71893
                ]
            ],
            [
                [
                    2.85534,
                    -0.09058,
                    0.32824
                ],
                [
                    -0.04665,
                    2.67878,
                    -0.01772
                ],
                [
                    0.34935,
                    -0.0028,
                    2.71895
                ]
            ],
            [
                [
                    2.85534,
                    0.09058,
                    -0.32824
                ],
                [
                    0.04677,
                    2.67878,
                    -0.01776
                ],
                [
                    -0.34934,
                    -0.00274,
                    2.71893
                ]
            ],
            [
                [
                    3.08136,
                    -0.33077,
                    0.49186
                ],
                [
                    -0.23442,
                    3.44598,
                    0.55891
                ],
                [
                    -0.14989,
                    0.05845,
                    3.4002
                ]
            ],
            [
                [
                    3.08136,
                    0.33077,
                    -0.49186
                ],
                [
                    0.23453,
                    3.44624,
                    0.55897
                ],
                [
                    0.14998,
                    0.0585,
                    3.40024
                ]
            ],
            [
                [
                    3.08159,
                    -0.33088,
                    -0.4921
                ],
                [
                    -0.23453,
                    3.44624,
                    -0.55897
                ],
                [
                    0.14989,
                    -0.05845,
                    3.4002
                ]
            ],
            [
                [
                    3.08159,
                    0.33088,
                    0.4921
                ],
                [
                    0.23442,
                    3.44598,
                    -0.55891
                ],
                [
                    -0.14998,
                    -0.0585,
                    3.40024
                ]
            ],
            [
                [
                    2.6687,
                    0.09198,
                    0.12979
                ],
                [
                    0.05095,
                    3.0613,
                    0.21004
                ],
                [
                    -0.0355,
                    0.02539,
                    2.81079
                ]
            ],
            [
                [
                    2.6687,
                    -0.09198,
                    -0.12979
                ],
                [
                    -0.05079,
                    3.06112,
                    0.2101
                ],
                [
                    0.0354,
                    0.02533,
                    2.8107
                ]
            ],
            [
                [
                    2.66909,
                    0.0921,
                    -0.12984
                ],
                [
                    0.05079,
                    3.06112,
                    -0.2101
                ],
                [
                    0.0355,
                    -0.02539,
                    2.81079
                ]
            ],
            [
                [
                    2.66909,
                    -0.0921,
                    0.12984
                ],
                [
                    -0.05095,
                    3.0613,
                    -0.21004
                ],
                [
                    -0.0354,
                    -0.02533,
                    2.8107
                ]
            ],
            [
                [
                    -2.46748,
                    0.23055,
                    -0.60632
                ],
                [
                    0.10395,
                    -1.85703,
                    0.27159
                ],
                [
                    -0.68065,
                    0.27676,
                    -2.43399
                ]
            ],
            [
                [
                    -2.46748,
                    -0.23055,
                    0.60632
                ],
                [
                    -0.10416,
                    -1.85709,
                    0.27194
                ],
                [
                    0.68078,
                    0.27659,
                    -2.43371
                ]
            ],
            [
                [
                    -2.46722,
                    0.23055,
                    0.60657
                ],
                [
                    0.10416,
                    -1.85709,
                    -0.27194
                ],
                [
                    0.68065,
                    -0.27676,
                    -2.43399
                ]
            ],
            [
                [
                    -2.46722,
                    -0.23055,
                    -0.60657
                ],
                [
                    -0.10395,
                    -1.85703,
                    -0.27159
                ],
                [
                    -0.68078,
                    -0.27659,
                    -2.43371
                ]
            ],
            [
                [
                    -2.46606,
                    -0.26338,
                    -0.29346
                ],
                [
                    -0.27779,
                    -2.3438,
                    -0.33523
                ],
                [
                    -0.21607,
                    -0.05043,
                    -1.85615
                ]
            ],
            [
                [
                    -2.46606,
                    0.26338,
                    0.29346
                ],
                [
                    0.27803,
                    -2.34377,
                    -0.33547
                ],
                [
                    0.21584,
                    -0.0504,
                    -1.85614
                ]
            ],
            [
                [
                    -2.46637,
                    -0.26344,
                    0.29352
                ],
                [
                    -0.27803,
                    -2.34377,
                    0.33547
                ],
                [
                    0.21607,
                    0.05043,
                    -1.85615
                ]
            ],
            [
                [
                    -2.46637,
                    0.26344,
                    -0.29352
                ],
                [
                    0.27779,
                    -2.3438,
                    0.33523
                ],
                [
                    -0.21584,
                    0.0504,
                    -1.85614
                ]
            ],
            [
                [
                    -1.44064,
                    0.49008,
                    -0.24145
                ],
                [
                    0.28978,
                    -3.5449,
                    -0.15049
                ],
                [
                    -0.16441,
                    0.0548,
                    -1.65879
                ]
            ],
            [
                [
                    -1.44064,
                    -0.49008,
                    0.24145
                ],
                [
                    -0.2897,
                    -3.54518,
                    -0.15048
                ],
                [
                    0.1644,
                    0.05479,
                    -1.65868
                ]
            ],
            [
                [
                    -1.44055,
                    0.48984,
                    0.24146
                ],
                [
                    0.2897,
                    -3.54518,
                    0.15048
                ],
                [
                    0.16441,
                    -0.0548,
                    -1.65879
                ]
            ],
            [
                [
                    -1.44055,
                    -0.48984,
                    -0.24146
                ],
                [
                    -0.28978,
                    -3.5449,
                    0.15049
                ],
                [
                    -0.1644,
                    -0.05479,
                    -1.65868
                ]
            ],
            [
                [
                    -2.23163,
                    0.04942,
                    0.14316
                ],
                [
                    0.01227,
                    -1.44029,
                    -0.21532
                ],
                [
                    0.11326,
                    0.11206,
                    -2.98118
                ]
            ],
            [
                [
                    -2.23163,
                    -0.04942,
                    -0.14316
                ],
                [
                    -0.01242,
                    -1.44015,
                    -0.21542
                ],
                [
                    -0.11322,
                    0.11207,
                    -2.98119
                ]
            ],
            [
                [
                    -2.23145,
                    0.04922,
                    -0.14329
                ],
                [
                    0.01242,
                    -1.44015,
                    0.21542
                ],
                [
                    -0.11326,
                    -0.11206,
                    -2.98118
                ]
            ],
            [
                [
                    -2.23145,
                    -0.04922,
                    0.14329
                ],
                [
                    -0.01227,
                    -1.44029,
                    0.21532
                ],
                [
                    0.11322,
                    -0.11207,
                    -2.98119
                ]
            ]
        ]
    },
    "band_gap": 3.3758,
    "is_direct": false,
    "formula": "BaGePbO4"
}