{
    "mp_id": "mp-1218203",
    "nelements": 5,
    "nsites": 20,
    "elements": [
        "La",
        "Mg",
        "O",
        "Sr",
        "Ta"
    ],
    "structure": {
        "@module": "pymatgen.core.structure",
        "@class": "Structure",
        "charge": null,
        "lattice": {
            "matrix": [
                [
                    5.61147421,
                    0.0,
                    9.81e-06
                ],
                [
                    0.0,
                    5.66999942,
                    0.0
                ],
                [
                    -5.61825625,
                    0.0,
                    7.9470908
                ]
            ],
            "a": 5.611474210008574,
            "b": 5.66999942,
            "c": 9.732474272974406,
            "alpha": 90.0,
            "beta": 125.25859086885694,
            "gamma": 90.0,
            "volume": 252.85334167720006
        },
        "sites": [
            {
                "species": [
                    {
                        "element": "Sr",
                        "occu": 1
                    }
                ],
                "abc": [
                    0.25601118,
                    0.22093623,
                    0.25023151
                ],
                "xyz": [
                    0.030735389037230387,
                    1.2527082959569866,
                    1.9886150424607836
                ],
                "label": "Sr",
                "properties": {}
            },
            {
                "species": [
                    {
                        "element": "Sr",
                        "occu": 1
                    }
                ],
                "abc": [
                    0.25601118,
                    0.77906377,
                    0.75023151
                ],
                "xyz": [
                    -2.778392735962769,
                    4.417291124043014,
                    5.9621604424607835
                ],
                "label": "Sr",
                "properties": {}
            },
            {
                "species": [
                    {
                        "element": "La",
                        "occu": 1
                    }
                ],
                "abc": [
                    0.74302273,
                    0.29088523,
                    0.75247176
                ],
                "xyz": [
                    -0.0581262817297068,
                    1.6493190853865665,
                    5.97996869020879
                ],
                "label": "La",
                "properties": {}
            },
            {
                "species": [
                    {
                        "element": "La",
                        "occu": 1
                    }
                ],
                "abc": [
                    0.74302273,
                    0.70911477,
                    0.25247176
                ],
                "xyz": [
                    2.751001843270293,
                    4.020680334613433,
                    2.006423290208789
                ],
                "label": "La",
                "properties": {}
            },
            {
                "species": [
                    {
                        "element": "Mg",
                        "occu": 1
                    }
                ],
                "abc": [
                    0.99975146,
                    0.24751727,
                    0.50039987
                ],
                "xyz": [
                    2.7987048370731595,
                    1.4034227773399834,
                    3.9767330107600185
                ],
                "label": "Mg",
                "properties": {}
            },
            {
                "species": [
                    {
                        "element": "Mg",
                        "occu": 1
                    }
                ],
                "abc": [
                    0.99975146,
                    0.75248273,
                    0.00039987
                ],
                "xyz": [
                    5.607832962073159,
                    4.2665766426600165,
                    0.0031876107600185997
                ],
                "label": "Mg",
                "properties": {}
            },
            {
                "species": [
                    {
                        "element": "Ta",
                        "occu": 1
                    }
                ],
                "abc": [
                    0.50019818,
                    0.75331709,
                    0.50044401
                ],
                "xyz": [
                    -0.004773499998624864,
                    4.271307463376088,
                    3.977078894730254
                ],
                "label": "Ta",
                "properties": {}
            },
            {
                "species": [
                    {
                        "element": "Ta",
                        "occu": 1
                    }
                ],
                "abc": [
                    0.50019818,
                    0.24668291,
                    0.00044401
                ],
                "xyz": [
                    2.804354625001375,
                    1.3986919566239122,
                    0.0035334947302538
                ],
                "label": "Ta",
                "properties": {}
            },
            {
                "species": [
                    {
                        "element": "O",
                        "occu": 1
                    }
                ],
                "abc": [
                    0.16812709,
                    0.76736812,
                    0.25542285
                ],
                "xyz": [
                    -0.49159019386796343,
                    4.35097679532649,
                    2.029870230671533
                ],
                "label": "O",
                "properties": {}
            },
            {
                "species": [
                    {
                        "element": "O",
                        "occu": 1
                    }
                ],
                "abc": [
                    0.16812709,
                    0.23263188,
                    0.75542285
                ],
                "xyz": [
                    -3.300718318867964,
                    1.3190226246735097,
                    6.003415630671532
                ],
                "label": "O",
                "properties": {}
            },
            {
                "species": [
                    {
                        "element": "O",
                        "occu": 1
                    }
                ],
                "abc": [
                    0.81201944,
                    0.72681426,
                    0.74471751
                ],
                "xyz": [
                    0.3726123405367048,
                    4.121036432647729,
                    5.918345638230614
                ],
                "label": "O",
                "properties": {}
            },
            {
                "species": [
                    {
                        "element": "O",
                        "occu": 1
                    }
                ],
                "abc": [
                    0.81201944,
                    0.27318574,
                    0.24471751
                ],
                "xyz": [
                    3.1817404655367048,
                    1.5489629873522708,
                    1.9448002382306144
                ],
                "label": "O",
                "properties": {}
            },
            {
                "species": [
                    {
                        "element": "O",
                        "occu": 1
                    }
                ],
                "abc": [
                    0.26067683,
                    0.53666021,
                    0.53579024
                ],
                "xyz": [
                    -1.5474255558794452,
                    3.042863079437078,
                    4.257976244273494
                ],
                "label": "O",
                "properties": {}
            },
            {
                "species": [
                    {
                        "element": "O",
                        "occu": 1
                    }
                ],
                "abc": [
                    0.26067683,
                    0.46333979,
                    0.03579024
                ],
                "xyz": [
                    1.2617025691205546,
                    2.6271363405629216,
                    0.28443084427349435
                ],
                "label": "O",
                "properties": {}
            },
            {
                "species": [
                    {
                        "element": "O",
                        "occu": 1
                    }
                ],
                "abc": [
                    0.7418225,
                    0.95473983,
                    0.4565718
                ],
                "xyz": [
                    1.597580458223975,
                    5.413374282350898,
                    3.628424828598165
                ],
                "label": "O",
                "properties": {}
            },
            {
                "species": [
                    {
                        "element": "O",
                        "occu": 1
                    }
                ],
                "abc": [
                    0.7418225,
                    0.04526017,
                    0.9565718
                ],
                "xyz": [
                    -1.211547666776025,
                    0.2566251376491014,
                    7.601970228598165
                ],
                "label": "O",
                "properties": {}
            },
            {
                "species": [
                    {
                        "element": "O",
                        "occu": 1
                    }
                ],
                "abc": [
                    0.343737,
                    0.03832854,
                    0.54444011
                ],
                "xyz": [
                    -1.1299327402354178,
                    0.2173227995694468,
                    4.326718361391958
                ],
                "label": "O",
                "properties": {}
            },
            {
                "species": [
                    {
                        "element": "O",
                        "occu": 1
                    }
                ],
                "abc": [
                    0.343737,
                    0.96167146,
                    0.04444011
                ],
                "xyz": [
                    1.6791953847645824,
                    5.4526766204305535,
                    0.353172961391958
                ],
                "label": "O",
                "properties": {}
            },
            {
                "species": [
                    {
                        "element": "O",
                        "occu": 1
                    }
                ],
                "abc": [
                    0.67463359,
                    0.47763911,
                    0.45950936
                ],
                "xyz": [
                    1.204047657731214,
                    2.708213476669316,
                    3.6517692255254057
                ],
                "label": "O",
                "properties": {}
            },
            {
                "species": [
                    {
                        "element": "O",
                        "occu": 1
                    }
                ],
                "abc": [
                    0.67463359,
                    0.52236089,
                    0.95950936
                ],
                "xyz": [
                    -1.605080467268786,
                    2.9617859433306837,
                    7.625314625525405
                ],
                "label": "O",
                "properties": {}
            }
        ]
    },
    "spacegroup": {
        "source": "spglib",
        "symbol": "Pc",
        "number": 7,
        "point_group": "m",
        "crystal_system": "monoclinic",
        "hall": "P -2yc"
    },
    "dielectric": {
        "epsilon_ionic": [
            [
                16.78234618,
                2.28e-06,
                0.54924209
            ],
            [
                2.28e-06,
                17.56189646,
                3.12e-06
            ],
            [
                0.54924209,
                3.12e-06,
                18.41703176
            ]
        ],
        "epsilon_ionic_avg": 17.58709146666667,
        "epsilon_ionic_eig": [
            16.614947323782108,
            18.584430616229213,
            17.561896459988695
        ],
        "epsilon_electronic": [
            [
                4.47140173,
                0.0,
                0.04272006
            ],
            [
                0.0,
                4.39885526,
                0.0
            ],
            [
                0.04271933,
                0.0,
                4.38799919
            ]
        ],
        "epsilon_electronic_avg": 4.419418726666667,
        "epsilon_electronic_eig": [
            4.489399440396425,
            4.370001479603576,
            4.39885526
        ]
    },
    "phonon": {
        "lowest_freq": -0.061675801386471336,
        "frequency": [
            -0.061675801386471336,
            -0.04311982317081442,
            -0.024663952067493247,
            2.559717088175952,
            2.6487505977619263,
            3.0159808194580804,
            3.0724524918289986,
            3.5134482382479244,
            3.612657883417212,
            3.8389162970860067,
            4.184431603616409,
            4.323549811085615,
            4.32877923830603,
            4.351920895629105,
            4.450718785530523,
            4.6004961981712444,
            4.8662186075676335,
            4.985129707199428,
            5.072784520525702,
            5.403894556989625,
            5.531054802113398,
            7.482041484158821,
            7.538215470307851,
            7.679454714194618,
            7.86557612130116,
            8.044156294490042,
            8.108497215874355,
            8.140318221733196,
            8.46354569684754,
            8.769921608557228,
            9.279766149445274,
            9.390529285297061,
            9.426986947786279,
            9.67874976074458,
            9.691646190500611,
            10.20606030407167,
            10.44323510084469,
            10.475320989413122,
            10.607111272543628,
            10.911389902254676,
            11.244525703346946,
            12.028353566461506,
            12.279997600194287,
            12.486460801188858,
            12.638588094062193,
            12.790446130948713,
            13.721803791817326,
            14.454902072542865,
            16.454326182063998,
            16.650474837359358,
            16.696025981243125,
            16.946396611898106,
            17.14007854246478,
            17.497365964757353,
            17.565006617475856,
            17.759673345243332,
            17.971622476174822,
            20.060030440562844,
            22.076490354176965,
            22.47953515450898
        ]
    },
    "born_effective_charge": {
        "avg_abs_trace": 2.982691833333333,
        "tensors": [
            [
                [
                    2.59195,
                    -0.11065,
                    0.06745
                ],
                [
                    -0.03489,
                    2.49568,
                    -0.03627
                ],
                [
                    -0.06551,
                    -0.08889,
                    2.44304
                ]
            ],
            [
                [
                    2.59195,
                    0.11065,
                    0.06745
                ],
                [
                    0.03489,
                    2.49565,
                    0.03627
                ],
                [
                    -0.06551,
                    0.08889,
                    2.44304
                ]
            ],
            [
                [
                    4.40227,
                    -0.26348,
                    0.28121
                ],
                [
                    -0.24862,
                    4.18094,
                    0.00707
                ],
                [
                    -0.1633,
                    -0.27434,
                    4.12254
                ]
            ],
            [
                [
                    4.40227,
                    0.26348,
                    0.28121
                ],
                [
                    0.24862,
                    4.18096,
                    -0.00707
                ],
                [
                    -0.1633,
                    0.27434,
                    4.12254
                ]
            ],
            [
                [
                    2.44478,
                    -0.11555,
                    -0.15503
                ],
                [
                    0.0587,
                    2.48239,
                    -0.0469
                ],
                [
                    0.10461,
                    -0.05633,
                    2.4593
                ]
            ],
            [
                [
                    2.44478,
                    0.11555,
                    -0.15503
                ],
                [
                    -0.0587,
                    2.48239,
                    0.0469
                ],
                [
                    0.10461,
                    0.05633,
                    2.4593
                ]
            ],
            [
                [
                    5.78225,
                    -0.01316,
                    -0.1654
                ],
                [
                    0.35514,
                    5.60459,
                    -0.22473
                ],
                [
                    0.43824,
                    0.01972,
                    5.73066
                ]
            ],
            [
                [
                    5.78225,
                    0.01316,
                    -0.1654
                ],
                [
                    -0.35514,
                    5.60459,
                    0.22473
                ],
                [
                    0.43824,
                    -0.01972,
                    5.73066
                ]
            ],
            [
                [
                    -2.69179,
                    0.17367,
                    0.56757
                ],
                [
                    0.14077,
                    -1.73773,
                    0.10929
                ],
                [
                    0.56576,
                    0.07067,
                    -3.14131
                ]
            ],
            [
                [
                    -2.69179,
                    -0.17367,
                    0.56757
                ],
                [
                    -0.14077,
                    -1.73773,
                    -0.10929
                ],
                [
                    0.56576,
                    -0.07067,
                    -3.14131
                ]
            ],
            [
                [
                    -1.90266,
                    0.10772,
                    0.35359
                ],
                [
                    0.10252,
                    -2.25362,
                    0.23191
                ],
                [
                    0.32484,
                    0.30781,
                    -3.23165
                ]
            ],
            [
                [
                    -1.90266,
                    -0.10772,
                    0.35359
                ],
                [
                    -0.10252,
                    -2.25362,
                    -0.23191
                ],
                [
                    0.32484,
                    -0.30781,
                    -3.23165
                ]
            ],
            [
                [
                    -2.86457,
                    0.57511,
                    0.05276
                ],
                [
                    0.51403,
                    -2.38022,
                    0.37393
                ],
                [
                    -0.01771,
                    0.29191,
                    -2.09023
                ]
            ],
            [
                [
                    -2.86457,
                    -0.57511,
                    0.05276
                ],
                [
                    -0.51403,
                    -2.38022,
                    -0.37393
                ],
                [
                    -0.01771,
                    -0.29191,
                    -2.09023
                ]
            ],
            [
                [
                    -3.0102,
                    0.44923,
                    -0.46319
                ],
                [
                    0.50342,
                    -2.36709,
                    0.02311
                ],
                [
                    -0.54946,
                    -0.07689,
                    -2.08675
                ]
            ],
            [
                [
                    -3.0102,
                    -0.44923,
                    -0.46319
                ],
                [
                    -0.50342,
                    -2.36709,
                    -0.0231
                ],
                [
                    -0.54946,
                    0.07689,
                    -2.08675
                ]
            ],
            [
                [
                    -2.2387,
                    -0.52784,
                    -0.08997
                ],
                [
                    -0.57586,
                    -3.25951,
                    -0.66156
                ],
                [
                    -0.11933,
                    -0.62447,
                    -2.10515
                ]
            ],
            [
                [
                    -2.2387,
                    0.52784,
                    -0.08997
                ],
                [
                    0.57586,
                    -3.25951,
                    0.66156
                ],
                [
                    -0.11933,
                    0.62447,
                    -2.10515
                ]
            ],
            [
                [
                    -2.51333,
                    -0.54227,
                    -0.44899
                ],
                [
                    -0.56892,
                    -2.76542,
                    -0.1194
                ],
                [
                    -0.51814,
                    -0.09912,
                    -2.10044
                ]
            ],
            [
                [
                    -2.51333,
                    0.54227,
                    -0.44899
                ],
                [
                    0.56892,
                    -2.76542,
                    0.1194
                ],
                [
                    -0.51814,
                    0.09912,
                    -2.10044
                ]
            ]
        ]
    },
    "band_gap": 4.3384,
    "is_direct": true,
    "formula": "SrLaMgTaO6"
}