{
    "mp_id": "mp-1192129",
    "nelements": 3,
    "nsites": 22,
    "elements": [
        "O",
        "Tl",
        "V"
    ],
    "structure": {
        "@module": "pymatgen.core.structure",
        "@class": "Structure",
        "charge": null,
        "lattice": {
            "matrix": [
                [
                    8.72978733,
                    0.0,
                    0.0
                ],
                [
                    -4.36489316,
                    7.56021768,
                    0.0
                ],
                [
                    0.0,
                    0.0,
                    5.10107911
                ]
            ],
            "a": 8.72978733,
            "b": 8.729787149020265,
            "c": 5.10107911,
            "alpha": 90.0,
            "beta": 90.0,
            "gamma": 119.99999685859818,
            "volume": 336.6665921067443
        },
        "sites": [
            {
                "species": [
                    {
                        "element": "Tl",
                        "occu": 1
                    }
                ],
                "abc": [
                    0.38697871,
                    0.38697871,
                    0.76551726
                ],
                "xyz": [
                    1.689121115193121,
                    2.925643285125593,
                    3.904964103330438
                ],
                "label": "Tl",
                "properties": {}
            },
            {
                "species": [
                    {
                        "element": "Tl",
                        "occu": 1
                    }
                ],
                "abc": [
                    0.0,
                    0.61302129,
                    0.76551726
                ],
                "xyz": [
                    -2.675772435655377,
                    4.634574394874408,
                    3.904964103330438
                ],
                "label": "Tl",
                "properties": {}
            },
            {
                "species": [
                    {
                        "element": "Tl",
                        "occu": 1
                    }
                ],
                "abc": [
                    0.61302129,
                    0.0,
                    0.76551726
                ],
                "xyz": [
                    5.351545490462256,
                    0.0,
                    3.904964103330438
                ],
                "label": "Tl",
                "properties": {}
            },
            {
                "species": [
                    {
                        "element": "V",
                        "occu": 1
                    }
                ],
                "abc": [
                    0.666667,
                    0.333333,
                    0.2967231
                ],
                "xyz": [
                    4.364898198226831,
                    2.52007003992744,
                    1.513608006864441
                ],
                "label": "V",
                "properties": {}
            },
            {
                "species": [
                    {
                        "element": "V",
                        "occu": 1
                    }
                ],
                "abc": [
                    0.333333,
                    0.666667,
                    0.2967231
                ],
                "xyz": [
                    -4.028226830321557e-06,
                    5.04014764007256,
                    1.513608006864441
                ],
                "label": "V",
                "properties": {}
            },
            {
                "species": [
                    {
                        "element": "V",
                        "occu": 1
                    }
                ],
                "abc": [
                    0.22827527,
                    0.0,
                    0.29101529
                ],
                "xyz": [
                    1.9927945597983292,
                    0.0,
                    1.4844920165095916
                ],
                "label": "V",
                "properties": {}
            },
            {
                "species": [
                    {
                        "element": "V",
                        "occu": 1
                    }
                ],
                "abc": [
                    0.77172473,
                    0.77172473,
                    0.29101529
                ],
                "xyz": [
                    3.3684967748218244,
                    5.834406947839226,
                    1.4844920165095916
                ],
                "label": "V",
                "properties": {}
            },
            {
                "species": [
                    {
                        "element": "V",
                        "occu": 1
                    }
                ],
                "abc": [
                    0.0,
                    0.22827527,
                    0.29101529
                ],
                "xyz": [
                    -0.9963971646201533,
                    1.7258107321607736,
                    1.4844920165095916
                ],
                "label": "V",
                "properties": {}
            },
            {
                "species": [
                    {
                        "element": "O",
                        "occu": 1
                    }
                ],
                "abc": [
                    0.333333,
                    0.666667,
                    0.97358616
                ],
                "xyz": [
                    -4.028226830321557e-06,
                    5.04014764007256,
                    4.966340022561117
                ],
                "label": "O",
                "properties": {}
            },
            {
                "species": [
                    {
                        "element": "O",
                        "occu": 1
                    }
                ],
                "abc": [
                    0.666667,
                    0.333333,
                    0.97358616
                ],
                "xyz": [
                    4.364898198226831,
                    2.52007003992744,
                    4.966340022561117
                ],
                "label": "O",
                "properties": {}
            },
            {
                "species": [
                    {
                        "element": "O",
                        "occu": 1
                    }
                ],
                "abc": [
                    0.75378468,
                    0.75378468,
                    0.97437188
                ],
                "xyz": [
                    3.290190355167316,
                    5.698776264649142,
                    4.970348042439427
                ],
                "label": "O",
                "properties": {}
            },
            {
                "species": [
                    {
                        "element": "O",
                        "occu": 1
                    }
                ],
                "abc": [
                    0.0,
                    0.24621532,
                    0.97437188
                ],
                "xyz": [
                    -1.0747035661552111,
                    1.8614414153508576,
                    4.970348042439427
                ],
                "label": "O",
                "properties": {}
            },
            {
                "species": [
                    {
                        "element": "O",
                        "occu": 1
                    }
                ],
                "abc": [
                    0.24621532,
                    0.0,
                    0.97437188
                ],
                "xyz": [
                    2.1494073809878955,
                    0.0,
                    4.970348042439427
                ],
                "label": "O",
                "properties": {}
            },
            {
                "species": [
                    {
                        "element": "O",
                        "occu": 1
                    }
                ],
                "abc": [
                    0.1689317,
                    0.1689317,
                    0.35969531
                ],
                "xyz": [
                    0.7373689924581891,
                    1.277160425052456,
                    1.834834231805974
                ],
                "label": "O",
                "properties": {}
            },
            {
                "species": [
                    {
                        "element": "O",
                        "occu": 1
                    }
                ],
                "abc": [
                    0.0,
                    0.8310683,
                    0.35969531
                ],
                "xyz": [
                    -3.627524338162828,
                    6.283057254947544,
                    1.834834231805974
                ],
                "label": "O",
                "properties": {}
            },
            {
                "species": [
                    {
                        "element": "O",
                        "occu": 1
                    }
                ],
                "abc": [
                    0.8310683,
                    0.0,
                    0.35969531
                ],
                "xyz": [
                    7.2550495157046395,
                    0.0,
                    1.834834231805974
                ],
                "label": "O",
                "properties": {}
            },
            {
                "species": [
                    {
                        "element": "O",
                        "occu": 1
                    }
                ],
                "abc": [
                    0.53921024,
                    0.70734033,
                    0.41450121
                ],
                "xyz": [
                    1.6197257531491163,
                    5.347646868643034,
                    2.114403463400723
                ],
                "label": "O",
                "properties": {}
            },
            {
                "species": [
                    {
                        "element": "O",
                        "occu": 1
                    }
                ],
                "abc": [
                    0.16813009,
                    0.46078976,
                    0.41450121
                ],
                "xyz": [
                    -0.5435581421482818,
                    3.483670890314957,
                    2.114403463400723
                ],
                "label": "O",
                "properties": {}
            },
            {
                "species": [
                    {
                        "element": "O",
                        "occu": 1
                    }
                ],
                "abc": [
                    0.29265967,
                    0.83186991,
                    0.41450121
                ],
                "xyz": [
                    -1.0761666010008346,
                    6.289117601042009,
                    2.114403463400723
                ],
                "label": "O",
                "properties": {}
            },
            {
                "species": [
                    {
                        "element": "O",
                        "occu": 1
                    }
                ],
                "abc": [
                    0.83186991,
                    0.29265967,
                    0.41450121
                ],
                "xyz": [
                    5.984619208735383,
                    2.2125708113569655,
                    2.114403463400723
                ],
                "label": "O",
                "properties": {}
            },
            {
                "species": [
                    {
                        "element": "O",
                        "occu": 1
                    }
                ],
                "abc": [
                    0.46078976,
                    0.16813009,
                    0.41450121
                ],
                "xyz": [
                    3.2887267288105564,
                    1.2711000789579914,
                    2.114403463400723
                ],
                "label": "O",
                "properties": {}
            },
            {
                "species": [
                    {
                        "element": "O",
                        "occu": 1
                    }
                ],
                "abc": [
                    0.70734033,
                    0.53921024,
                    0.41450121
                ],
                "xyz": [
                    3.821335562454061,
                    4.076546789685043,
                    2.114403463400723
                ],
                "label": "O",
                "properties": {}
            }
        ]
    },
    "spacegroup": {
        "source": "spglib",
        "symbol": "P31m",
        "number": 157,
        "point_group": "3m",
        "crystal_system": "trigonal",
        "hall": "P 3 -2"
    },
    "dielectric": {
        "epsilon_ionic": [
            [
                23.26935019,
                0.00436317,
                -0.00202174
            ],
            [
                0.00436317,
                23.272466,
                -0.00476758
            ],
            [
                -0.00202174,
                -0.00476758,
                6.07695581
            ]
        ],
        "epsilon_ionic_avg": 17.539590666666665,
        "epsilon_ionic_eig": [
            23.26627520438452,
            23.275542544923635,
            6.076954250691838
        ],
        "epsilon_electronic": [
            [
                6.01499018,
                -4e-07,
                -0.0
            ],
            [
                -4e-07,
                6.01499128,
                -0.0
            ],
            [
                -0.0,
                -0.0,
                4.29014674
            ]
        ],
        "epsilon_electronic_avg": 5.440042733333333,
        "epsilon_electronic_eig": [
            6.014990049926475,
            6.014991410073526,
            4.29014674
        ]
    },
    "phonon": {
        "lowest_freq": -0.03059860437585831,
        "frequency": [
            -0.03059860437585831,
            -0.030598600941320546,
            -0.019880623979922952,
            0.84603432022987,
            0.9381461830423399,
            0.9381462012783134,
            1.3189858004934005,
            1.3189858143904494,
            1.4197025710029707,
            1.505577692792015,
            1.505577814539363,
            1.9357233952704205,
            2.25340467608081,
            2.336906158778435,
            2.3369061640075737,
            2.521710074462711,
            3.249765692051846,
            3.249765789818946,
            3.4508515735604965,
            4.2469066987204345,
            4.2469068195708095,
            4.728703103815992,
            4.728703139995064,
            4.923035288458074,
            5.731993701094036,
            6.513032816547379,
            6.513033341894295,
            6.668393553491247,
            6.668393553491247,
            7.889557364944833,
            8.320912363705652,
            8.320912451821036,
            8.558240965163158,
            8.558241179342797,
            8.844906921099389,
            9.576043497817324,
            9.576043536100379,
            9.648757681121525,
            9.648757959748215,
            10.151898024360753,
            10.15189830121553,
            10.242766851235885,
            10.885986732017809,
            10.885986754468703,
            11.541294831355902,
            11.960579496075352,
            12.179919955338532,
            12.179920336589184,
            13.565792130984603,
            14.231807949202015,
            14.231808086584493,
            14.81943483268,
            16.284311494830884,
            19.228451337318248,
            19.228451337318248,
            20.8076711395231,
            20.807671374436588,
            24.05884668503016,
            25.57608202422096,
            26.503747524929857,
            26.503748032103687,
            27.253221865797787,
            27.269087522972953,
            28.61500833614797,
            28.615008378852856,
            28.97359345435647
        ]
    },
    "born_effective_charge": {
        "avg_abs_trace": 2.9576934848484853,
        "tensors": [
            [
                [
                    1.88225,
                    -0.11088,
                    0.01334
                ],
                [
                    -0.11016,
                    1.75417,
                    0.02111
                ],
                [
                    0.05724,
                    0.09915,
                    1.93036
                ]
            ],
            [
                [
                    1.88225,
                    0.11088,
                    0.01334
                ],
                [
                    0.11126,
                    1.75421,
                    -0.02537
                ],
                [
                    0.05724,
                    -0.09915,
                    1.93036
                ]
            ],
            [
                [
                    1.6901,
                    0.0,
                    -0.02909
                ],
                [
                    0.00111,
                    1.94659,
                    -0.00163
                ],
                [
                    -0.11448,
                    -0.0,
                    1.93036
                ]
            ],
            [
                [
                    5.10163,
                    0.40564,
                    0.00016
                ],
                [
                    -0.40603,
                    5.10184,
                    0.0005
                ],
                [
                    -0.0,
                    -0.0,
                    3.60868
                ]
            ],
            [
                [
                    5.10163,
                    -0.40564,
                    0.00016
                ],
                [
                    0.40571,
                    5.10168,
                    -4e-05
                ],
                [
                    -0.0,
                    0.0,
                    3.60868
                ]
            ],
            [
                [
                    8.13578,
                    0.0,
                    -0.21173
                ],
                [
                    -6e-05,
                    6.85191,
                    -1e-05
                ],
                [
                    -0.08739,
                    -0.0,
                    2.77235
                ]
            ],
            [
                [
                    7.17272,
                    0.55598,
                    0.10599
                ],
                [
                    0.5563,
                    7.81469,
                    0.1838
                ],
                [
                    0.04369,
                    0.07568,
                    2.77235
                ]
            ],
            [
                [
                    7.17272,
                    -0.55598,
                    0.10599
                ],
                [
                    -0.55619,
                    7.81423,
                    -0.18299
                ],
                [
                    0.04369,
                    -0.07568,
                    2.77235
                ]
            ],
            [
                [
                    -0.93589,
                    -0.01757,
                    0.00023
                ],
                [
                    0.01741,
                    -0.93589,
                    0.00078
                ],
                [
                    -0.0,
                    -0.0,
                    -2.80101
                ]
            ],
            [
                [
                    -0.93589,
                    0.01757,
                    0.00023
                ],
                [
                    -0.0176,
                    -0.93585,
                    0.00033
                ],
                [
                    -0.0,
                    0.0,
                    -2.80101
                ]
            ],
            [
                [
                    -0.78925,
                    0.0684,
                    -0.37454
                ],
                [
                    0.06822,
                    -0.71037,
                    -0.64834
                ],
                [
                    -0.10491,
                    -0.18172,
                    -2.11507
                ]
            ],
            [
                [
                    -0.78925,
                    -0.0684,
                    -0.37454
                ],
                [
                    -0.06852,
                    -0.71039,
                    0.6488
                ],
                [
                    -0.10491,
                    0.18172,
                    -2.11507
                ]
            ],
            [
                [
                    -0.67093,
                    0.0,
                    0.7492
                ],
                [
                    -0.0002,
                    -0.82875,
                    0.00039
                ],
                [
                    0.20983,
                    -0.0,
                    -2.11507
                ]
            ],
            [
                [
                    -4.80201,
                    1.71399,
                    -0.23075
                ],
                [
                    1.71375,
                    -2.82281,
                    -0.39977
                ],
                [
                    -0.2327,
                    -0.40306,
                    -0.8348
                ]
            ],
            [
                [
                    -4.80201,
                    -1.71399,
                    -0.23075
                ],
                [
                    -1.71425,
                    -2.82296,
                    0.40034
                ],
                [
                    -0.2327,
                    0.40306,
                    -0.8348
                ]
            ],
            [
                [
                    -1.83337,
                    0.0,
                    0.46198
                ],
                [
                    -7e-05,
                    -5.79147,
                    0.00035
                ],
                [
                    0.46541,
                    -0.0,
                    -0.8348
                ]
            ],
            [
                [
                    -5.84474,
                    -1.12748,
                    -0.15449
                ],
                [
                    -1.35992,
                    -1.68213,
                    0.01339
                ],
                [
                    -0.30622,
                    -0.02768,
                    -1.14564
                ]
            ],
            [
                [
                    -1.64582,
                    -1.06464,
                    0.08883
                ],
                [
                    -1.29697,
                    -5.88102,
                    0.12765
                ],
                [
                    0.12913,
                    0.27904,
                    -1.14564
                ]
            ],
            [
                [
                    -3.7997,
                    2.54035,
                    0.06606
                ],
                [
                    2.30808,
                    -3.72713,
                    -0.14006
                ],
                [
                    0.17709,
                    -0.25135,
                    -1.14564
                ]
            ],
            [
                [
                    -5.84474,
                    1.12748,
                    -0.15449
                ],
                [
                    1.35977,
                    -1.6821,
                    -0.01276
                ],
                [
                    -0.30622,
                    0.02768,
                    -1.14564
                ]
            ],
            [
                [
                    -3.7997,
                    -2.54035,
                    0.06606
                ],
                [
                    -2.30829,
                    -3.72723,
                    0.14073
                ],
                [
                    0.17709,
                    0.25135,
                    -1.14564
                ]
            ],
            [
                [
                    -1.64582,
                    1.06464,
                    0.08883
                ],
                [
                    1.29667,
                    -5.88119,
                    -0.12723
                ],
                [
                    0.12913,
                    -0.27904,
                    -1.14564
                ]
            ]
        ]
    },
    "band_gap": 1.9912999999999998,
    "is_direct": false,
    "formula": "Tl3V5O14"
}