{
    "mp_id": "mp-1218220",
    "nelements": 4,
    "nsites": 24,
    "elements": [
        "Al",
        "La",
        "O",
        "Sr"
    ],
    "structure": {
        "@module": "pymatgen.core.structure",
        "@class": "Structure",
        "charge": null,
        "lattice": {
            "matrix": [
                [
                    5.55611641,
                    -5.58793618,
                    0.0
                ],
                [
                    5.55611641,
                    5.58793618,
                    0.0
                ],
                [
                    0.0,
                    0.0,
                    5.21206765
                ]
            ],
            "a": 7.880067278470678,
            "b": 7.880067278470678,
            "c": 5.21206765,
            "alpha": 90.0,
            "beta": 90.0,
            "gamma": 90.32719399999328,
            "volume": 323.64046270357966
        },
        "sites": [
            {
                "species": [
                    {
                        "element": "Sr",
                        "occu": 1
                    }
                ],
                "abc": [
                    0.66095329,
                    0.66095329,
                    0.50951592
                ],
                "xyz": [
                    7.344666841624978,
                    0.0,
                    2.655631443791988
                ],
                "label": "Sr",
                "properties": {}
            },
            {
                "species": [
                    {
                        "element": "Sr",
                        "occu": 1
                    }
                ],
                "abc": [
                    0.33904671,
                    0.33904671,
                    0.50951592
                ],
                "xyz": [
                    3.7675659783750217,
                    0.0,
                    2.655631443791988
                ],
                "label": "Sr",
                "properties": {}
            },
            {
                "species": [
                    {
                        "element": "La",
                        "occu": 1
                    }
                ],
                "abc": [
                    0.16322104,
                    0.83677896,
                    0.49111641
                ],
                "xyz": [
                    5.55611641,
                    3.763798670493545,
                    2.5597319529451363
                ],
                "label": "La",
                "properties": {}
            },
            {
                "species": [
                    {
                        "element": "La",
                        "occu": 1
                    }
                ],
                "abc": [
                    0.83677896,
                    0.16322104,
                    0.49111641
                ],
                "xyz": [
                    5.55611641,
                    -3.763798670493545,
                    2.5597319529451363
                ],
                "label": "La",
                "properties": {}
            },
            {
                "species": [
                    {
                        "element": "Al",
                        "occu": 1
                    }
                ],
                "abc": [
                    0.85702275,
                    0.85702275,
                    0.96233163
                ],
                "xyz": [
                    9.523436330036654,
                    0.0,
                    5.015737557294769
                ],
                "label": "Al",
                "properties": {}
            },
            {
                "species": [
                    {
                        "element": "Al",
                        "occu": 1
                    }
                ],
                "abc": [
                    0.35626413,
                    0.64373587,
                    0.03757615
                ],
                "xyz": [
                    5.55611641,
                    1.6063737366735529,
                    0.1958494358265475
                ],
                "label": "Al",
                "properties": {}
            },
            {
                "species": [
                    {
                        "element": "Al",
                        "occu": 1
                    }
                ],
                "abc": [
                    0.14297725,
                    0.14297725,
                    0.96233163
                ],
                "xyz": [
                    1.5887964899633449,
                    0.0,
                    5.015737557294769
                ],
                "label": "Al",
                "properties": {}
            },
            {
                "species": [
                    {
                        "element": "Al",
                        "occu": 1
                    }
                ],
                "abc": [
                    0.64373587,
                    0.35626413,
                    0.03757615
                ],
                "xyz": [
                    5.55611641,
                    -1.6063737366735529,
                    0.1958494358265475
                ],
                "label": "Al",
                "properties": {}
            },
            {
                "species": [
                    {
                        "element": "Al",
                        "occu": 1
                    }
                ],
                "abc": [
                    0.0,
                    0.5,
                    0.99974664
                ],
                "xyz": [
                    2.778058205,
                    2.79396809,
                    5.210747120540196
                ],
                "label": "Al",
                "properties": {}
            },
            {
                "species": [
                    {
                        "element": "Al",
                        "occu": 1
                    }
                ],
                "abc": [
                    0.5,
                    0.0,
                    0.99974664
                ],
                "xyz": [
                    2.778058205,
                    -2.79396809,
                    5.210747120540196
                ],
                "label": "Al",
                "properties": {}
            },
            {
                "species": [
                    {
                        "element": "O",
                        "occu": 1
                    }
                ],
                "abc": [
                    0.91714385,
                    0.66569563,
                    0.81056087
                ],
                "xyz": [
                    8.794440409223867,
                    -1.4050766059345996,
                    4.224698088882855
                ],
                "label": "O",
                "properties": {}
            },
            {
                "species": [
                    {
                        "element": "O",
                        "occu": 1
                    }
                ],
                "abc": [
                    0.40897041,
                    0.83831201,
                    0.1936239
                ],
                "xyz": [
                    6.930046321666511,
                    2.3991334602190877,
                    1.0091808654568348
                ],
                "label": "O",
                "properties": {}
            },
            {
                "species": [
                    {
                        "element": "O",
                        "occu": 1
                    }
                ],
                "abc": [
                    0.08285615,
                    0.33430437,
                    0.81056087
                ],
                "xyz": [
                    2.317792410776133,
                    1.4050766059345996,
                    4.224698088882855
                ],
                "label": "O",
                "properties": {}
            },
            {
                "species": [
                    {
                        "element": "O",
                        "occu": 1
                    }
                ],
                "abc": [
                    0.59102959,
                    0.16168799,
                    0.1936239
                ],
                "xyz": [
                    4.182186498333488,
                    -2.3991334602190877,
                    1.0091808654568348
                ],
                "label": "O",
                "properties": {}
            },
            {
                "species": [
                    {
                        "element": "O",
                        "occu": 1
                    }
                ],
                "abc": [
                    0.83831201,
                    0.40897041,
                    0.1936239
                ],
                "xyz": [
                    6.930046321666511,
                    -2.3991334602190877,
                    1.0091808654568348
                ],
                "label": "O",
                "properties": {}
            },
            {
                "species": [
                    {
                        "element": "O",
                        "occu": 1
                    }
                ],
                "abc": [
                    0.33430437,
                    0.08285615,
                    0.81056087
                ],
                "xyz": [
                    2.317792410776133,
                    -1.4050766059345996,
                    4.224698088882855
                ],
                "label": "O",
                "properties": {}
            },
            {
                "species": [
                    {
                        "element": "O",
                        "occu": 1
                    }
                ],
                "abc": [
                    0.16168799,
                    0.59102959,
                    0.1936239
                ],
                "xyz": [
                    4.182186498333488,
                    2.3991334602190877,
                    1.0091808654568348
                ],
                "label": "O",
                "properties": {}
            },
            {
                "species": [
                    {
                        "element": "O",
                        "occu": 1
                    }
                ],
                "abc": [
                    0.66569563,
                    0.91714385,
                    0.81056087
                ],
                "xyz": [
                    8.794440409223867,
                    1.4050766059345996,
                    4.224698088882855
                ],
                "label": "O",
                "properties": {}
            },
            {
                "species": [
                    {
                        "element": "O",
                        "occu": 1
                    }
                ],
                "abc": [
                    0.86744334,
                    0.86744334,
                    0.29699672
                ],
                "xyz": [
                    9.639232352238418,
                    0.0,
                    1.547966996468108
                ],
                "label": "O",
                "properties": {}
            },
            {
                "species": [
                    {
                        "element": "O",
                        "occu": 1
                    }
                ],
                "abc": [
                    0.34997887,
                    0.65002113,
                    0.7042938
                ],
                "xyz": [
                    5.55611641,
                    1.6766170001829663,
                    3.67082693107557
                ],
                "label": "O",
                "properties": {}
            },
            {
                "species": [
                    {
                        "element": "O",
                        "occu": 1
                    }
                ],
                "abc": [
                    0.13255666,
                    0.13255666,
                    0.29699672
                ],
                "xyz": [
                    1.4730004677615811,
                    0.0,
                    1.547966996468108
                ],
                "label": "O",
                "properties": {}
            },
            {
                "species": [
                    {
                        "element": "O",
                        "occu": 1
                    }
                ],
                "abc": [
                    0.65002113,
                    0.34997887,
                    0.7042938
                ],
                "xyz": [
                    5.55611641,
                    -1.6766170001829663,
                    3.67082693107557
                ],
                "label": "O",
                "properties": {}
            },
            {
                "species": [
                    {
                        "element": "O",
                        "occu": 1
                    }
                ],
                "abc": [
                    0.5,
                    0.5,
                    0.16544927
                ],
                "xyz": [
                    5.55611641,
                    0.0,
                    0.8623327878831155
                ],
                "label": "O",
                "properties": {}
            },
            {
                "species": [
                    {
                        "element": "O",
                        "occu": 1
                    }
                ],
                "abc": [
                    0.0,
                    0.0,
                    0.81465812
                ],
                "xyz": [
                    0.0,
                    0.0,
                    4.246053233061818
                ],
                "label": "O",
                "properties": {}
            }
        ]
    },
    "spacegroup": {
        "source": "spglib",
        "symbol": "Cmm2",
        "number": 35,
        "point_group": "mm2",
        "crystal_system": "orthorhombic",
        "hall": "C 2 -2"
    },
    "dielectric": {
        "epsilon_ionic": [
            [
                8.15431016,
                0.0,
                -5.34e-06
            ],
            [
                0.0,
                9.46900618,
                -1.32e-06
            ],
            [
                -5.34e-06,
                -1.32e-06,
                5.20134919
            ]
        ],
        "epsilon_ionic_avg": 7.6082218433333315,
        "epsilon_ionic_eig": [
            8.154310160009658,
            5.201349189989933,
            9.469006180000402
        ],
        "epsilon_electronic": [
            [
                3.26983813,
                0.0,
                0.0
            ],
            [
                0.0,
                3.40621881,
                0.0
            ],
            [
                0.0,
                0.0,
                3.32749863
            ]
        ],
        "epsilon_electronic_avg": 3.334518523333333,
        "epsilon_electronic_eig": [
            3.26983813,
            3.40621881,
            3.32749863
        ]
    },
    "phonon": {
        "lowest_freq": -0.06660640703976974,
        "frequency": [
            -0.06660640703976974,
            -0.04640520644263888,
            -0.03853577381358622,
            1.9314856616254463,
            2.257935516079746,
            2.498006504736103,
            2.6732152538165845,
            3.5776499471941516,
            3.6294844612348895,
            3.6678946337742575,
            4.182913032042511,
            4.448770505363321,
            4.463548949199077,
            5.153059003106831,
            5.3052421479656955,
            5.474759057712932,
            5.533266974251599,
            5.828678018215665,
            5.925347912776156,
            5.977603943915509,
            5.99341126945834,
            6.383901395594606,
            6.462591376241323,
            6.72272780409112,
            6.997958008746885,
            7.187406896572801,
            7.445509983354476,
            7.757005239027167,
            8.108606386697666,
            8.327478481224226,
            8.368970377566155,
            8.659325688949083,
            8.739694973283541,
            9.283352895532605,
            9.574463642764547,
            9.768538426913318,
            10.21422479417796,
            10.32248183002139,
            10.70151801399585,
            11.025393057403159,
            11.152967466468489,
            11.249619273915082,
            12.141321346560419,
            12.15178687312933,
            12.292612548968856,
            13.952523556339054,
            14.264502680092596,
            14.297104516128057,
            16.082810625309033,
            17.180321631231564,
            17.340603113960643,
            17.404383729381493,
            17.595071867668274,
            17.636070793154044,
            18.576470471900933,
            18.663122488067902,
            19.57053192186346,
            19.668621763062337,
            22.027948007629032,
            22.162427111993242,
            22.245520722668523,
            22.456943122092333,
            22.83348001709794,
            22.881995785068035,
            23.34525285165233,
            23.588067020840903,
            23.71849952433108,
            24.126295697712415,
            24.70837401762769,
            24.802143459134065,
            26.25273663426839,
            27.627059785702972
        ]
    },
    "born_effective_charge": {
        "avg_abs_trace": 2.315683611111111,
        "tensors": [
            [
                [
                    2.77657,
                    0.0,
                    -0.14648
                ],
                [
                    -2e-05,
                    2.37504,
                    -1e-05
                ],
                [
                    -0.1954,
                    -0.0,
                    2.32928
                ]
            ],
            [
                [
                    2.77657,
                    0.0,
                    0.14647
                ],
                [
                    2e-05,
                    2.37504,
                    -1e-05
                ],
                [
                    0.1954,
                    -0.0,
                    2.32928
                ]
            ],
            [
                [
                    3.20984,
                    0.0,
                    -0.0
                ],
                [
                    0.0,
                    4.58269,
                    0.05126
                ],
                [
                    0.0,
                    0.00752,
                    3.87199
                ]
            ],
            [
                [
                    3.20984,
                    -0.0,
                    -0.0
                ],
                [
                    0.0,
                    4.58273,
                    -0.05129
                ],
                [
                    0.0,
                    -0.00752,
                    3.87199
                ]
            ],
            [
                [
                    2.17321,
                    0.0,
                    -0.17689
                ],
                [
                    0.0,
                    2.36836,
                    1e-05
                ],
                [
                    0.09997,
                    -0.0,
                    2.69747
                ]
            ],
            [
                [
                    2.24461,
                    -0.0,
                    -0.0
                ],
                [
                    0.0,
                    2.45694,
                    -0.13601
                ],
                [
                    0.0,
                    0.05615,
                    2.65546
                ]
            ],
            [
                [
                    2.17321,
                    0.0,
                    0.17689
                ],
                [
                    -0.0,
                    2.36836,
                    1e-05
                ],
                [
                    -0.09997,
                    -0.0,
                    2.69747
                ]
            ],
            [
                [
                    2.24461,
                    0.0,
                    -0.0
                ],
                [
                    0.0,
                    2.45694,
                    0.13603
                ],
                [
                    0.0,
                    -0.05615,
                    2.65546
                ]
            ],
            [
                [
                    2.98675,
                    -0.17515,
                    -0.0
                ],
                [
                    -0.30871,
                    2.58562,
                    1e-05
                ],
                [
                    0.0,
                    -0.0,
                    2.36846
                ]
            ],
            [
                [
                    2.98675,
                    0.17515,
                    -0.0
                ],
                [
                    0.30871,
                    2.58562,
                    1e-05
                ],
                [
                    0.0,
                    -0.0,
                    2.36846
                ]
            ],
            [
                [
                    -1.85743,
                    0.18245,
                    -0.0111
                ],
                [
                    0.20441,
                    -2.02486,
                    0.15284
                ],
                [
                    -0.10971,
                    0.19726,
                    -1.79111
                ]
            ],
            [
                [
                    -2.15948,
                    -0.06592,
                    -0.3602
                ],
                [
                    -0.06546,
                    -1.79428,
                    -0.23757
                ],
                [
                    -0.36317,
                    -0.24283,
                    -1.91815
                ]
            ],
            [
                [
                    -1.85743,
                    0.18245,
                    0.01111
                ],
                [
                    0.20445,
                    -2.02485,
                    -0.1528
                ],
                [
                    0.10971,
                    -0.19726,
                    -1.79111
                ]
            ],
            [
                [
                    -2.15948,
                    -0.06593,
                    0.3602
                ],
                [
                    -0.06545,
                    -1.79434,
                    0.23757
                ],
                [
                    0.36317,
                    0.24283,
                    -1.91815
                ]
            ],
            [
                [
                    -2.15948,
                    0.06592,
                    -0.3602
                ],
                [
                    0.06545,
                    -1.79434,
                    0.23757
                ],
                [
                    -0.36317,
                    0.24283,
                    -1.91815
                ]
            ],
            [
                [
                    -1.85743,
                    -0.18245,
                    0.01111
                ],
                [
                    -0.20441,
                    -2.02486,
                    0.15284
                ],
                [
                    0.10971,
                    0.19726,
                    -1.79111
                ]
            ],
            [
                [
                    -2.15948,
                    0.06593,
                    0.3602
                ],
                [
                    0.06546,
                    -1.79428,
                    -0.23757
                ],
                [
                    0.36317,
                    -0.24283,
                    -1.91815
                ]
            ],
            [
                [
                    -1.85743,
                    -0.18245,
                    -0.0111
                ],
                [
                    -0.20445,
                    -2.02485,
                    -0.1528
                ],
                [
                    -0.10971,
                    -0.19726,
                    -1.79111
                ]
            ],
            [
                [
                    -2.00058,
                    0.0,
                    0.24756
                ],
                [
                    2e-05,
                    -2.031,
                    -0.0
                ],
                [
                    0.27117,
                    -0.0,
                    -2.2009
                ]
            ],
            [
                [
                    -1.57164,
                    0.0,
                    1e-05
                ],
                [
                    0.0,
                    -2.49216,
                    0.36811
                ],
                [
                    0.0,
                    0.39122,
                    -2.25658
                ]
            ],
            [
                [
                    -2.00056,
                    0.0,
                    -0.24757
                ],
                [
                    -2e-05,
                    -2.031,
                    -0.0
                ],
                [
                    -0.27117,
                    -0.0,
                    -2.2009
                ]
            ],
            [
                [
                    -1.57164,
                    -0.0,
                    1e-05
                ],
                [
                    0.0,
                    -2.49215,
                    -0.36814
                ],
                [
                    0.0,
                    -0.39122,
                    -2.25658
                ]
            ],
            [
                [
                    -1.57293,
                    0.0,
                    0.0
                ],
                [
                    0.0,
                    -2.46583,
                    -1e-05
                ],
                [
                    0.0,
                    -0.0,
                    -1.87595
                ]
            ],
            [
                [
                    -1.99695,
                    0.0,
                    -1e-05
                ],
                [
                    0.0,
                    -1.94855,
                    -1e-05
                ],
                [
                    0.0,
                    -0.0,
                    -2.21736
                ]
            ]
        ]
    },
    "band_gap": 4.3555,
    "is_direct": false,
    "formula": "SrLaAl3O7"
}