{
    "mp_id": "mp-1226215",
    "nelements": 4,
    "nsites": 18,
    "elements": [
        "Cs",
        "Hf",
        "O",
        "W"
    ],
    "structure": {
        "@module": "pymatgen.core.structure",
        "@class": "Structure",
        "charge": null,
        "lattice": {
            "matrix": [
                [
                    6.36817314,
                    -3.68319665,
                    0.00046069
                ],
                [
                    6.36817314,
                    3.68319665,
                    0.00046069
                ],
                [
                    -4.24843012,
                    0.0,
                    6.07999128
                ]
            ],
            "a": 7.356600228082532,
            "b": 7.356600228082532,
            "c": 7.4172402178572625,
            "alpha": 119.72043486217478,
            "beta": 119.72043486217478,
            "gamma": 60.08809073189172,
            "volume": 285.22965366054194
        },
        "sites": [
            {
                "species": [
                    {
                        "element": "Cs",
                        "occu": 1
                    }
                ],
                "abc": [
                    0.14119316,
                    0.11385076,
                    0.88052682
                ],
                "xyz": [
                    -2.11669282269151,
                    -0.10070743608296001,
                    5.353712883589634
                ],
                "label": "Cs",
                "properties": {}
            },
            {
                "species": [
                    {
                        "element": "Cs",
                        "occu": 1
                    }
                ],
                "abc": [
                    0.88614924,
                    0.85880684,
                    0.11947318
                ],
                "xyz": [
                    10.60460898269151,
                    -0.10070743608295984,
                    0.7271997764103656
                ],
                "label": "Cs",
                "properties": {}
            },
            {
                "species": [
                    {
                        "element": "Hf",
                        "occu": 1
                    }
                ],
                "abc": [
                    0.49487059,
                    0.50512941,
                    0.0
                ],
                "xyz": [
                    6.36817314,
                    0.037785251456952995,
                    0.00046069
                ],
                "label": "Hf",
                "properties": {}
            },
            {
                "species": [
                    {
                        "element": "W",
                        "occu": 1
                    }
                ],
                "abc": [
                    0.01842646,
                    0.48577842,
                    0.49261519
                ],
                "xyz": [
                    1.1180227631074002,
                    1.721349173442934,
                    2.9953283417417103
                ],
                "label": "W",
                "properties": {}
            },
            {
                "species": [
                    {
                        "element": "W",
                        "occu": 1
                    }
                ],
                "abc": [
                    0.51422158,
                    0.98157354,
                    0.50738481
                ],
                "xyz": [
                    7.369893396892598,
                    1.7213491734429343,
                    3.08558431825829
                ],
                "label": "W",
                "properties": {}
            },
            {
                "species": [
                    {
                        "element": "W",
                        "occu": 1
                    }
                ],
                "abc": [
                    0.51929741,
                    0.48070259,
                    0.5
                ],
                "xyz": [
                    4.24395808,
                    -0.1421523117313528,
                    3.04045633
                ],
                "label": "W",
                "properties": {}
            },
            {
                "species": [
                    {
                        "element": "O",
                        "occu": 1
                    }
                ],
                "abc": [
                    0.8100825,
                    0.80563512,
                    0.55388608
                ],
                "xyz": [
                    7.936023244187998,
                    -0.016380575117276752,
                    3.3683668814637397
                ],
                "label": "O",
                "properties": {}
            },
            {
                "species": [
                    {
                        "element": "O",
                        "occu": 1
                    }
                ],
                "abc": [
                    0.4301759,
                    0.43873258,
                    0.20069353
                ],
                "xyz": [
                    4.680727205713103,
                    0.03151593511112183,
                    1.2206152098000695
                ],
                "label": "O",
                "properties": {}
            },
            {
                "species": [
                    {
                        "element": "O",
                        "occu": 1
                    }
                ],
                "abc": [
                    0.8266165,
                    0.43894746,
                    0.20037163
                ],
                "xyz": [
                    7.208065548938539,
                    -1.427861309436716,
                    1.2188407958201186
                ],
                "label": "O",
                "properties": {}
            },
            {
                "species": [
                    {
                        "element": "O",
                        "occu": 1
                    }
                ],
                "abc": [
                    0.44271232,
                    0.80412844,
                    0.55583466
                ],
                "xyz": [
                    5.578673126405228,
                    1.3311666424399986,
                    3.3800442929914896
                ],
                "label": "O",
                "properties": {}
            },
            {
                "species": [
                    {
                        "element": "O",
                        "occu": 1
                    }
                ],
                "abc": [
                    0.43066234,
                    0.83640945,
                    0.20136828
                ],
                "xyz": [
                    7.213433473565127,
                    1.4944463962991816,
                    1.2249011137715335
                ],
                "label": "O",
                "properties": {}
            },
            {
                "species": [
                    {
                        "element": "O",
                        "occu": 1
                    }
                ],
                "abc": [
                    0.81084225,
                    0.4333982,
                    0.55081068
                ],
                "xyz": [
                    5.583457930061831,
                    -1.3902006605224326,
                    3.349497340463781
                ],
                "label": "O",
                "properties": {}
            },
            {
                "species": [
                    {
                        "element": "O",
                        "occu": 1
                    }
                ],
                "abc": [
                    0.19436488,
                    0.1899175,
                    0.44611392
                ],
                "xyz": [
                    0.5518929158120023,
                    -0.016380575117276974,
                    2.7125457785362594
                ],
                "label": "O",
                "properties": {}
            },
            {
                "species": [
                    {
                        "element": "O",
                        "occu": 1
                    }
                ],
                "abc": [
                    0.56126742,
                    0.5698241,
                    0.79930647
                ],
                "xyz": [
                    3.8071889542868953,
                    0.03151593511112205,
                    4.860297450199931
                ],
                "label": "O",
                "properties": {}
            },
            {
                "species": [
                    {
                        "element": "O",
                        "occu": 1
                    }
                ],
                "abc": [
                    0.16359055,
                    0.56933766,
                    0.79863172
                ],
                "xyz": [
                    1.274482686434872,
                    1.4944463962991814,
                    4.856011546228467
                ],
                "label": "O",
                "properties": {}
            },
            {
                "species": [
                    {
                        "element": "O",
                        "occu": 1
                    }
                ],
                "abc": [
                    0.5666018,
                    0.18915775,
                    0.44918932
                ],
                "xyz": [
                    2.9044582299381685,
                    -1.3902006605224326,
                    2.731415319536219
                ],
                "label": "O",
                "properties": {}
            },
            {
                "species": [
                    {
                        "element": "O",
                        "occu": 1
                    }
                ],
                "abc": [
                    0.56105254,
                    0.1733835,
                    0.79962837
                ],
                "xyz": [
                    1.2798506110614607,
                    -1.4278613094367163,
                    4.862071864179881
                ],
                "label": "O",
                "properties": {}
            },
            {
                "species": [
                    {
                        "element": "O",
                        "occu": 1
                    }
                ],
                "abc": [
                    0.19587156,
                    0.55728768,
                    0.44416534
                ],
                "xyz": [
                    2.9092430335947723,
                    1.3311666424399977,
                    2.7008683670085105
                ],
                "label": "O",
                "properties": {}
            }
        ]
    },
    "spacegroup": {
        "source": "spglib",
        "symbol": "C2",
        "number": 5,
        "point_group": "2",
        "crystal_system": "monoclinic",
        "hall": "C 2y"
    },
    "dielectric": {
        "epsilon_ionic": [
            [
                65.87990669,
                -0.00049133,
                -0.98559182
            ],
            [
                -0.00049133,
                47.32312473,
                0.0008249
            ],
            [
                -0.98559182,
                0.0008249,
                23.50230585
            ]
        ],
        "epsilon_ionic_avg": 45.56844575666668,
        "epsilon_ionic_eig": [
            65.90281659870735,
            23.4793959275734,
            47.32312474371928
        ],
        "epsilon_electronic": [
            [
                4.9179711,
                0.0,
                -0.00469486
            ],
            [
                0.0,
                4.80721747,
                0.0
            ],
            [
                -0.00469469,
                0.0,
                4.53504549
            ]
        ],
        "epsilon_electronic_avg": 4.753411353333334,
        "epsilon_electronic_eig": [
            4.918028650604206,
            4.534987939395794,
            4.80721747
        ]
    },
    "phonon": {
        "lowest_freq": -0.08979649308943496,
        "frequency": [
            -0.08979649308943496,
            -0.04717581206701579,
            -0.01618065237421031,
            0.8368111600860175,
            0.8714467847302078,
            0.9389233219434551,
            1.1339027269852566,
            1.2261515287519247,
            1.2276529075784233,
            1.7891804768855986,
            2.07605255024218,
            2.339262183215239,
            4.158887120788205,
            4.313382125213995,
            4.443889571495941,
            4.503075608292805,
            4.716579636599265,
            5.458795417356597,
            5.583945036235966,
            5.640696645437704,
            7.024639450575068,
            7.213769644413169,
            7.434354641915603,
            7.857397757759006,
            7.947993122771338,
            8.471448158242541,
            8.782900594174187,
            9.3175742641575,
            9.61550056457214,
            9.711829068410998,
            9.946018698353493,
            9.965888158671422,
            10.751711088032254,
            10.790944952274227,
            11.979670662873406,
            12.05738491566956,
            12.556406210486566,
            12.75089820440615,
            12.950163549710927,
            13.109934451720623,
            13.15529541700531,
            14.451475780692626,
            17.64847596481109,
            17.75623937595356,
            18.37273360459358,
            18.847641869755446,
            18.98686230326129,
            19.12839138379876,
            20.14960029481997,
            20.2428366777523,
            20.54570105976046,
            25.825255311824883,
            27.296006920233232,
            27.315069799384176
        ]
    },
    "born_effective_charge": {
        "avg_abs_trace": 3.8450838888888885,
        "tensors": [
            [
                [
                    1.36059,
                    -0.01051,
                    0.00014
                ],
                [
                    0.00749,
                    1.35771,
                    -0.03517
                ],
                [
                    -0.00249,
                    0.01636,
                    1.50796
                ]
            ],
            [
                [
                    1.3606,
                    0.01049,
                    0.00011
                ],
                [
                    -0.00749,
                    1.35771,
                    0.03517
                ],
                [
                    -0.00245,
                    -0.01635,
                    1.50793
                ]
            ],
            [
                [
                    5.29847,
                    -0.00011,
                    -0.01086
                ],
                [
                    -0.0,
                    5.30985,
                    0.0
                ],
                [
                    -0.01033,
                    0.00014,
                    9.07152
                ]
            ],
            [
                [
                    8.39018,
                    -1.62393,
                    0.14317
                ],
                [
                    -1.52151,
                    9.92627,
                    -0.34981
                ],
                [
                    0.41787,
                    -0.76012,
                    6.84455
                ]
            ],
            [
                [
                    8.39015,
                    1.62384,
                    0.14306
                ],
                [
                    1.52151,
                    9.92627,
                    0.34981
                ],
                [
                    0.41796,
                    0.76028,
                    6.8447
                ]
            ],
            [
                [
                    11.37082,
                    -0.00026,
                    -0.3341
                ],
                [
                    -0.0,
                    7.12103,
                    0.0
                ],
                [
                    -0.8606,
                    0.00037,
                    6.87097
                ]
            ],
            [
                [
                    -1.42275,
                    0.13164,
                    -0.10365
                ],
                [
                    0.39341,
                    -6.40075,
                    0.0188
                ],
                [
                    -0.16666,
                    -0.01491,
                    -0.95965
                ]
            ],
            [
                [
                    -2.67289,
                    -0.11879,
                    1.59729
                ],
                [
                    -0.02768,
                    -1.25306,
                    0.16045
                ],
                [
                    1.51481,
                    0.26611,
                    -4.4763
                ]
            ],
            [
                [
                    -1.6131,
                    0.69805,
                    -0.84045
                ],
                [
                    0.67223,
                    -2.39573,
                    1.51342
                ],
                [
                    -0.82742,
                    1.54749,
                    -4.38346
                ]
            ],
            [
                [
                    -5.35848,
                    -2.0594,
                    0.14462
                ],
                [
                    -2.08821,
                    -2.56224,
                    -0.06879
                ],
                [
                    0.11366,
                    -0.1493,
                    -0.99336
                ]
            ],
            [
                [
                    -1.59219,
                    -0.57973,
                    -0.72389
                ],
                [
                    -0.59913,
                    -2.2307,
                    -1.22017
                ],
                [
                    -0.67155,
                    -1.08914,
                    -4.54232
                ]
            ],
            [
                [
                    -5.4261,
                    2.44972,
                    -0.04498
                ],
                [
                    2.25136,
                    -2.65693,
                    0.12247
                ],
                [
                    0.0574,
                    0.15417,
                    -0.96834
                ]
            ],
            [
                [
                    -1.4227,
                    -0.1316,
                    -0.10355
                ],
                [
                    -0.39341,
                    -6.40075,
                    -0.0188
                ],
                [
                    -0.16668,
                    0.01495,
                    -0.95969
                ]
            ],
            [
                [
                    -2.67297,
                    0.11902,
                    1.59737
                ],
                [
                    0.02768,
                    -1.25306,
                    -0.16045
                ],
                [
                    1.51492,
                    -0.26659,
                    -4.47664
                ]
            ],
            [
                [
                    -1.59215,
                    0.57979,
                    -0.72377
                ],
                [
                    0.59913,
                    -2.2307,
                    1.22017
                ],
                [
                    -0.67164,
                    1.08917,
                    -4.54234
                ]
            ],
            [
                [
                    -5.42593,
                    -2.44968,
                    -0.04476
                ],
                [
                    -2.25136,
                    -2.65693,
                    -0.12247
                ],
                [
                    0.05721,
                    -0.15442,
                    -0.96857
                ]
            ],
            [
                [
                    -1.61304,
                    -0.69792,
                    -0.84039
                ],
                [
                    -0.67223,
                    -2.39573,
                    -1.51342
                ],
                [
                    -0.82766,
                    -1.54764,
                    -4.38356
                ]
            ],
            [
                [
                    -5.35851,
                    2.05938,
                    0.14462
                ],
                [
                    2.08821,
                    -2.56224,
                    0.06879
                ],
                [
                    0.11366,
                    0.14941,
                    -0.99339
                ]
            ]
        ]
    },
    "band_gap": 2.9339000000000004,
    "is_direct": false,
    "formula": "Cs2Hf(WO4)3"
}