{
    "mp_id": "mp-19426",
    "nelements": 3,
    "nsites": 12,
    "elements": [
        "Ca",
        "O",
        "W"
    ],
    "structure": {
        "@module": "pymatgen.core.structure",
        "@class": "Structure",
        "charge": null,
        "lattice": {
            "matrix": [
                [
                    -2.61194342,
                    2.6119434,
                    5.62077278
                ],
                [
                    2.61194342,
                    -2.6119434,
                    5.62077278
                ],
                [
                    2.6119434,
                    2.61194342,
                    -5.62077278
                ]
            ],
            "a": 6.725889041492863,
            "b": 6.725889041492863,
            "c": 6.725889041492863,
            "alpha": 134.29728699508394,
            "beta": 134.29728699508394,
            "gamma": 66.62403967945812,
            "volume": 153.38523190431704
        },
        "sites": [
            {
                "species": [
                    {
                        "element": "Ca",
                        "occu": 1
                    }
                ],
                "abc": [
                    0.25,
                    0.75,
                    0.5
                ],
                "xyz": [
                    2.6119434100000003,
                    9.999999717180685e-09,
                    2.81038639
                ],
                "label": "Ca",
                "properties": {}
            },
            {
                "species": [
                    {
                        "element": "Ca",
                        "occu": 1
                    }
                ],
                "abc": [
                    0.5,
                    0.5,
                    0.0
                ],
                "xyz": [
                    0.0,
                    0.0,
                    5.62077278
                ],
                "label": "Ca",
                "properties": {}
            },
            {
                "species": [
                    {
                        "element": "W",
                        "occu": 1
                    }
                ],
                "abc": [
                    0.75,
                    0.25,
                    0.5
                ],
                "xyz": [
                    -1.0000000161269895e-08,
                    2.6119434100000003,
                    2.81038639
                ],
                "label": "W",
                "properties": {}
            },
            {
                "species": [
                    {
                        "element": "W",
                        "occu": 1
                    }
                ],
                "abc": [
                    0.0,
                    0.0,
                    0.0
                ],
                "xyz": [
                    0.0,
                    0.0,
                    0.0
                ],
                "label": "W",
                "properties": {}
            },
            {
                "species": [
                    {
                        "element": "O",
                        "occu": 1
                    }
                ],
                "abc": [
                    0.24547217,
                    0.84522782,
                    0.9160148
                ],
                "xyz": [
                    3.9591066347876427,
                    0.8260510178524061,
                    0.9818657610211279
                ],
                "label": "O",
                "properties": {}
            },
            {
                "species": [
                    {
                        "element": "O",
                        "occu": 1
                    }
                ],
                "abc": [
                    0.59522782,
                    0.17921302,
                    0.09975464
                ],
                "xyz": [
                    -0.8260536459152399,
                    1.3471605867247887,
                    3.792257828001636
                ],
                "label": "O",
                "properties": {}
            },
            {
                "species": [
                    {
                        "element": "O",
                        "occu": 1
                    }
                ],
                "abc": [
                    0.07945838,
                    0.49547217,
                    0.90024536
                ],
                "xyz": [
                    3.437994407852386,
                    1.264785471338045,
                    -1.8285206289788722
                ],
                "label": "O",
                "properties": {}
            },
            {
                "species": [
                    {
                        "element": "O",
                        "occu": 1
                    }
                ],
                "abc": [
                    0.92921302,
                    0.32945838,
                    0.0839852
                ],
                "xyz": [
                    -1.3471605967247884,
                    1.7858897640847597,
                    6.602644218001636
                ],
                "label": "O",
                "properties": {}
            },
            {
                "species": [
                    {
                        "element": "O",
                        "occu": 1
                    }
                ],
                "abc": [
                    0.82078698,
                    0.92054162,
                    0.4160148
                ],
                "xyz": [
                    1.3471605867247884,
                    0.8260536459152401,
                    7.449287731998366
                ],
                "label": "O",
                "properties": {}
            },
            {
                "species": [
                    {
                        "element": "O",
                        "occu": 1
                    }
                ],
                "abc": [
                    0.67054162,
                    0.75452783,
                    0.59975464
                ],
                "xyz": [
                    1.7858924021476144,
                    1.3471579586619546,
                    4.638907018978872
                ],
                "label": "O",
                "properties": {}
            },
            {
                "species": [
                    {
                        "element": "O",
                        "occu": 1
                    }
                ],
                "abc": [
                    0.50452783,
                    0.40477218,
                    0.5839852
                ],
                "xyz": [
                    1.2647801752123569,
                    1.785892412147594,
                    1.8285206289788714
                ],
                "label": "O",
                "properties": {}
            },
            {
                "species": [
                    {
                        "element": "O",
                        "occu": 1
                    }
                ],
                "abc": [
                    0.15477218,
                    0.07078698,
                    0.40024536
                ],
                "xyz": [
                    0.82605363591524,
                    1.2647828232752112,
                    -0.981871438001636
                ],
                "label": "O",
                "properties": {}
            }
        ]
    },
    "spacegroup": {
        "source": "spglib",
        "symbol": "I4_1/a",
        "number": 88,
        "point_group": "4/m",
        "crystal_system": "tetragonal",
        "hall": "I 4bw -1bw"
    },
    "dielectric": {
        "epsilon_ionic": [
            [
                8.9374587,
                -1.326e-05,
                0.0
            ],
            [
                -1.326e-05,
                8.93748646,
                0.0
            ],
            [
                0.0,
                0.0,
                6.79734878
            ]
        ],
        "epsilon_ionic_avg": 8.224097980000002,
        "epsilon_ionic_eig": [
            8.937453384115026,
            8.937491775884975,
            6.79734878
        ],
        "epsilon_electronic": [
            [
                3.94251159,
                -2.5e-07,
                0.0
            ],
            [
                2.5e-07,
                3.94251159,
                -0.0
            ],
            [
                0.0,
                0.0,
                4.02631594
            ]
        ],
        "epsilon_electronic_avg": 3.9704463733333335,
        "epsilon_electronic_eig": [
            3.94251159,
            3.94251159,
            4.02631594
        ]
    },
    "phonon": {
        "lowest_freq": -0.04838782463378076,
        "frequency": [
            -0.04838782463378076,
            -0.04838782463378076,
            -0.016141461534999502,
            2.096393487961089,
            3.443821910070596,
            3.443821910070596,
            3.7868996494874794,
            3.7868996494874794,
            4.847821016136599,
            5.712712095766586,
            5.712712095766586,
            5.905729740771209,
            5.905729740771209,
            6.361408328264699,
            6.491397335868967,
            6.643577375796921,
            7.733029134445576,
            8.307893925782846,
            8.307893925782846,
            8.761411707870709,
            8.761411707870709,
            9.529617368305766,
            9.566959495021365,
            11.687385758804044,
            11.805621239035826,
            11.805621239035826,
            12.709072356537241,
            12.983010610652753,
            22.21103173853439,
            22.458998292856442,
            22.458998292856442,
            22.733834780907,
            22.733834780907,
            23.893989663737077,
            25.644698057719342,
            25.895004736141797
        ]
    },
    "born_effective_charge": {
        "avg_abs_trace": 2.537113888888889,
        "tensors": [
            [
                [
                    2.95298,
                    0.1791,
                    4e-05
                ],
                [
                    -0.17911,
                    2.95298,
                    4e-05
                ],
                [
                    0.0,
                    -0.0,
                    2.65615
                ]
            ],
            [
                [
                    2.95298,
                    0.1791,
                    -4e-05
                ],
                [
                    -0.17911,
                    2.95298,
                    -4e-05
                ],
                [
                    0.0,
                    -0.0,
                    2.65615
                ]
            ],
            [
                [
                    4.58585,
                    -0.28074,
                    7e-05
                ],
                [
                    0.28071,
                    4.58586,
                    0.0
                ],
                [
                    0.0,
                    -0.0,
                    5.10019
                ]
            ],
            [
                [
                    4.58585,
                    -0.28074,
                    -7e-05
                ],
                [
                    0.28071,
                    4.58586,
                    -0.0
                ],
                [
                    0.0,
                    -0.0,
                    5.10019
                ]
            ],
            [
                [
                    -2.09577,
                    0.73674,
                    0.67546
                ],
                [
                    0.68624,
                    -1.67372,
                    -0.69133
                ],
                [
                    0.81794,
                    -0.53995,
                    -1.93909
                ]
            ],
            [
                [
                    -1.6735,
                    -0.68587,
                    0.69147
                ],
                [
                    -0.73681,
                    -2.09595,
                    0.67551
                ],
                [
                    0.53995,
                    0.81794,
                    -1.93909
                ]
            ],
            [
                [
                    -1.67362,
                    -0.68603,
                    -0.6911
                ],
                [
                    -0.73673,
                    -2.09575,
                    -0.67527
                ],
                [
                    -0.53995,
                    -0.81794,
                    -1.93909
                ]
            ],
            [
                [
                    -2.09595,
                    0.73681,
                    -0.67532
                ],
                [
                    0.6857,
                    -1.67344,
                    0.69128
                ],
                [
                    -0.81794,
                    0.53995,
                    -1.93909
                ]
            ],
            [
                [
                    -2.09577,
                    0.73674,
                    -0.67546
                ],
                [
                    0.68624,
                    -1.67372,
                    0.69133
                ],
                [
                    -0.81791,
                    0.53991,
                    -1.93908
                ]
            ],
            [
                [
                    -1.6735,
                    -0.68587,
                    -0.69147
                ],
                [
                    -0.73681,
                    -2.09595,
                    -0.67551
                ],
                [
                    -0.53991,
                    -0.81791,
                    -1.93908
                ]
            ],
            [
                [
                    -2.09595,
                    0.73681,
                    0.67532
                ],
                [
                    0.6857,
                    -1.67344,
                    -0.69128
                ],
                [
                    0.81791,
                    -0.53991,
                    -1.93908
                ]
            ],
            [
                [
                    -1.67362,
                    -0.68603,
                    0.6911
                ],
                [
                    -0.73673,
                    -2.09575,
                    0.67527
                ],
                [
                    0.53991,
                    0.81791,
                    -1.93908
                ]
            ]
        ]
    },
    "band_gap": 4.222099999999999,
    "is_direct": true,
    "formula": "CaWO4"
}