{
    "mp_id": "mp-19450",
    "nelements": 4,
    "nsites": 12,
    "elements": [
        "Mo",
        "O",
        "Sc",
        "Tl"
    ],
    "structure": {
        "@module": "pymatgen.core.structure",
        "@class": "Structure",
        "charge": null,
        "lattice": {
            "matrix": [
                [
                    5.82320117,
                    0.0,
                    0.0
                ],
                [
                    -2.91160108,
                    5.04303979,
                    0.0
                ],
                [
                    0.0,
                    0.0,
                    7.33975804
                ]
            ],
            "a": 5.82320117,
            "b": 5.823201110435772,
            "c": 7.33975804,
            "alpha": 90.0,
            "beta": 90.0,
            "gamma": 120.0000059622372,
            "volume": 215.5439968572023
        },
        "sites": [
            {
                "species": [
                    {
                        "element": "Sc",
                        "occu": 1
                    }
                ],
                "abc": [
                    0.0,
                    0.0,
                    0.0
                ],
                "xyz": [
                    0.0,
                    0.0,
                    0.0
                ],
                "label": "Sc",
                "properties": {}
            },
            {
                "species": [
                    {
                        "element": "Tl",
                        "occu": 1
                    }
                ],
                "abc": [
                    0.0,
                    0.0,
                    0.5
                ],
                "xyz": [
                    0.0,
                    0.0,
                    3.66987902
                ],
                "label": "Tl",
                "properties": {}
            },
            {
                "species": [
                    {
                        "element": "Mo",
                        "occu": 1
                    }
                ],
                "abc": [
                    0.666667,
                    0.333333,
                    0.24727098
                ],
                "xyz": [
                    2.91160333160075,
                    1.68101158232007,
                    1.8149091635136794
                ],
                "label": "Mo",
                "properties": {}
            },
            {
                "species": [
                    {
                        "element": "Mo",
                        "occu": 1
                    }
                ],
                "abc": [
                    0.333333,
                    0.666667,
                    0.75272902
                ],
                "xyz": [
                    -3.2416007500479793e-06,
                    3.36202820767993,
                    5.524848876486321
                ],
                "label": "Mo",
                "properties": {}
            },
            {
                "species": [
                    {
                        "element": "O",
                        "occu": 1
                    }
                ],
                "abc": [
                    0.83608064,
                    0.16391936,
                    0.17010347
                ],
                "xyz": [
                    4.39139797545344,
                    0.8266518548313343,
                    1.248518311564399
                ],
                "label": "O",
                "properties": {}
            },
            {
                "species": [
                    {
                        "element": "O",
                        "occu": 1
                    }
                ],
                "abc": [
                    0.83608064,
                    0.67216228,
                    0.17010347
                ],
                "xyz": [
                    2.9115973406790867,
                    3.3897411233771213,
                    1.248518311564399
                ],
                "label": "O",
                "properties": {}
            },
            {
                "species": [
                    {
                        "element": "O",
                        "occu": 1
                    }
                ],
                "abc": [
                    0.32783772,
                    0.16391936,
                    0.17010347
                ],
                "xyz": [
                    1.4317972090652236,
                    0.8266518548313343,
                    1.248518311564399
                ],
                "label": "O",
                "properties": {}
            },
            {
                "species": [
                    {
                        "element": "O",
                        "occu": 1
                    }
                ],
                "abc": [
                    0.67216228,
                    0.83608064,
                    0.82989653
                ],
                "xyz": [
                    1.479802880934776,
                    4.216387935168666,
                    6.0912397284356015
                ],
                "label": "O",
                "properties": {}
            },
            {
                "species": [
                    {
                        "element": "O",
                        "occu": 1
                    }
                ],
                "abc": [
                    0.333333,
                    0.666667,
                    0.51558095
                ],
                "xyz": [
                    -3.2416007500479793e-06,
                    3.36202820767993,
                    3.7842394230333385
                ],
                "label": "O",
                "properties": {}
            },
            {
                "species": [
                    {
                        "element": "O",
                        "occu": 1
                    }
                ],
                "abc": [
                    0.666667,
                    0.333333,
                    0.48441905
                ],
                "xyz": [
                    2.91160333160075,
                    1.68101158232007,
                    3.5555186169666624
                ],
                "label": "O",
                "properties": {}
            },
            {
                "species": [
                    {
                        "element": "O",
                        "occu": 1
                    }
                ],
                "abc": [
                    0.16391936,
                    0.83608064,
                    0.82989653
                ],
                "xyz": [
                    -1.4797978854534404,
                    4.216387935168666,
                    6.0912397284356015
                ],
                "label": "O",
                "properties": {}
            },
            {
                "species": [
                    {
                        "element": "O",
                        "occu": 1
                    }
                ],
                "abc": [
                    0.16391936,
                    0.32783772,
                    0.82989653
                ],
                "xyz": [
                    2.7493209134865637e-06,
                    1.6532986666228788,
                    6.0912397284356015
                ],
                "label": "O",
                "properties": {}
            }
        ]
    },
    "spacegroup": {
        "source": "spglib",
        "symbol": "P-3m1",
        "number": 164,
        "point_group": "-3m",
        "crystal_system": "trigonal",
        "hall": "-P 3 2\""
    },
    "dielectric": {
        "epsilon_ionic": [
            [
                22.12730618,
                3.19e-06,
                1e-08
            ],
            [
                3.19e-06,
                22.1146393,
                0.00087891
            ],
            [
                1e-08,
                0.00087891,
                7.6537173
            ]
        ],
        "epsilon_ionic_avg": 17.298554260000003,
        "epsilon_ionic_eig": [
            22.127306180803373,
            22.114639352615278,
            7.653717246581361
        ],
        "epsilon_electronic": [
            [
                3.87359723,
                -3.8e-07,
                -0.0
            ],
            [
                -3.8e-07,
                3.87359723,
                0.0
            ],
            [
                -0.0,
                0.0,
                3.45375206
            ]
        ],
        "epsilon_electronic_avg": 3.7336488400000003,
        "epsilon_electronic_eig": [
            3.87359761,
            3.87359685,
            3.45375206
        ]
    },
    "phonon": {
        "lowest_freq": -0.12638448456383902,
        "frequency": [
            -0.12638448456383902,
            -0.1263844720909399,
            -0.04493468297287023,
            0.446161043483544,
            0.4461610870324145,
            1.6115954755068875,
            1.6115955816626126,
            1.7016356666732049,
            2.083405363958988,
            3.1300028815471967,
            3.1300030767547837,
            3.432955294334401,
            4.284387302765998,
            4.2843876849631926,
            4.564110483771574,
            7.490788979426908,
            7.490789615648589,
            7.974993810832144,
            8.51058056550453,
            8.51058086703523,
            9.467096978253332,
            9.467097197687133,
            9.83143645249285,
            9.831437073968983,
            9.910817083496319,
            10.23627814284668,
            10.236278787495376,
            10.609795009100846,
            23.016628192652185,
            23.016629413769987,
            23.19967968908266,
            23.199681005911856,
            25.650264543375297,
            27.475135139125292,
            28.25291072659348,
            28.847149035612986
        ]
    },
    "born_effective_charge": {
        "avg_abs_trace": 2.5877494444444444,
        "tensors": [
            [
                [
                    5.96748,
                    -0.0,
                    -0.0
                ],
                [
                    -0.0,
                    5.96747,
                    -0.00026
                ],
                [
                    0.0,
                    0.0,
                    5.41146
                ]
            ],
            [
                [
                    1.64295,
                    -0.0,
                    -0.0
                ],
                [
                    0.0,
                    1.64264,
                    0.00055
                ],
                [
                    0.0,
                    0.0,
                    2.01905
                ]
            ],
            [
                [
                    4.38525,
                    3e-05,
                    -7e-05
                ],
                [
                    -0.0,
                    4.38565,
                    -0.00015
                ],
                [
                    0.0,
                    0.0,
                    3.19304
                ]
            ],
            [
                [
                    4.38525,
                    -3e-05,
                    7e-05
                ],
                [
                    -0.0,
                    4.38567,
                    -0.00011
                ],
                [
                    0.0,
                    0.0,
                    3.19358
                ]
            ],
            [
                [
                    -3.43924,
                    1.58594,
                    1.27356
                ],
                [
                    1.58525,
                    -1.60771,
                    -0.73506
                ],
                [
                    0.94226,
                    -0.54402,
                    -1.5491
                ]
            ],
            [
                [
                    -0.69159,
                    0.00025,
                    4e-05
                ],
                [
                    0.0,
                    -4.35366,
                    1.46989
                ],
                [
                    -0.0,
                    1.08803,
                    -1.5491
                ]
            ],
            [
                [
                    -3.43848,
                    -1.58675,
                    -1.27366
                ],
                [
                    -1.58525,
                    -1.60771,
                    -0.73506
                ],
                [
                    -0.94226,
                    -0.54402,
                    -1.5491
                ]
            ],
            [
                [
                    -3.43924,
                    -1.58594,
                    -1.27356
                ],
                [
                    -1.58528,
                    -1.60786,
                    -0.73501
                ],
                [
                    -0.9421,
                    -0.54392,
                    -1.54904
                ]
            ],
            [
                [
                    -0.62116,
                    -6e-05,
                    -4e-05
                ],
                [
                    0.0,
                    -0.62134,
                    7e-05
                ],
                [
                    0.0,
                    0.0,
                    -2.26138
                ]
            ],
            [
                [
                    -0.62116,
                    6e-05,
                    4e-05
                ],
                [
                    0.0,
                    -0.62128,
                    0.0002
                ],
                [
                    0.0,
                    0.0,
                    -2.26132
                ]
            ],
            [
                [
                    -3.43848,
                    1.58675,
                    1.27366
                ],
                [
                    1.58528,
                    -1.60786,
                    -0.73501
                ],
                [
                    0.9421,
                    -0.54392,
                    -1.54904
                ]
            ],
            [
                [
                    -0.69159,
                    -0.00025,
                    -4e-05
                ],
                [
                    0.0,
                    -4.35401,
                    1.46996
                ],
                [
                    -0.0,
                    1.08784,
                    -1.54904
                ]
            ]
        ]
    },
    "band_gap": 3.3686999999999996,
    "is_direct": false,
    "formula": "ScTl(MoO4)2"
}