{
    "mp_id": "mp-17761",
    "nelements": 3,
    "nsites": 30,
    "elements": [
        "Ca",
        "Ge",
        "O"
    ],
    "structure": {
        "@module": "pymatgen.core.structure",
        "@class": "Structure",
        "charge": null,
        "lattice": {
            "matrix": [
                [
                    7.32877255,
                    -0.00085699,
                    0.00279609
                ],
                [
                    -0.02014654,
                    7.5618479,
                    0.00035057
                ],
                [
                    -0.65652085,
                    -1.90410298,
                    7.90597787
                ]
            ],
            "a": 7.328773133491351,
            "b": 7.5618747456373345,
            "c": 8.15849948617142,
            "alpha": 103.48134311045162,
            "beta": 94.5928062152009,
            "gamma": 90.15934791778638,
            "volume": 438.1606324486779
        },
        "sites": [
            {
                "species": [
                    {
                        "element": "Ca",
                        "occu": 1
                    }
                ],
                "abc": [
                    0.96936284,
                    0.24590837,
                    0.98640221
                ],
                "xyz": [
                    6.4516919526184235,
                    -0.01952043052291419,
                    7.801270677019659
                ],
                "label": "Ca",
                "properties": {}
            },
            {
                "species": [
                    {
                        "element": "Ca",
                        "occu": 1
                    }
                ],
                "abc": [
                    0.03063716,
                    0.75409163,
                    0.01359779
                ],
                "xyz": [
                    0.20041320738157628,
                    5.676408360522914,
                    0.1078538529803408
                ],
                "label": "Ca",
                "properties": {}
            },
            {
                "species": [
                    {
                        "element": "Ca",
                        "occu": 1
                    }
                ],
                "abc": [
                    0.26066703,
                    0.92531856,
                    0.71023052
                ],
                "xyz": [
                    1.4254462620859023,
                    5.644542771110035,
                    5.616120011122084
                ],
                "label": "Ca",
                "properties": {}
            },
            {
                "species": [
                    {
                        "element": "Ca",
                        "occu": 1
                    }
                ],
                "abc": [
                    0.73933297,
                    0.07468144,
                    0.28976948
                ],
                "xyz": [
                    5.226658897914097,
                    0.012345158889965235,
                    2.2930045188779156
                ],
                "label": "Ca",
                "properties": {}
            },
            {
                "species": [
                    {
                        "element": "Ca",
                        "occu": 1
                    }
                ],
                "abc": [
                    0.25755388,
                    0.42809173,
                    0.70928408
                ],
                "xyz": [
                    1.4132694516348119,
                    1.8863938980136878,
                    5.608454459969425
                ],
                "label": "Ca",
                "properties": {}
            },
            {
                "species": [
                    {
                        "element": "Ca",
                        "occu": 1
                    }
                ],
                "abc": [
                    0.74244612,
                    0.57190827,
                    0.29071592
                ],
                "xyz": [
                    5.238835708365188,
                    3.7704940319863134,
                    2.3006700700305753
                ],
                "label": "Ca",
                "properties": {}
            },
            {
                "species": [
                    {
                        "element": "Ge",
                        "occu": 1
                    }
                ],
                "abc": [
                    0.21960144,
                    0.0582431,
                    0.32408601
                ],
                "xyz": [
                    1.3954663857102896,
                    -0.17685587023088534,
                    2.562851266710535
                ],
                "label": "Ge",
                "properties": {}
            },
            {
                "species": [
                    {
                        "element": "Ge",
                        "occu": 1
                    }
                ],
                "abc": [
                    0.78039856,
                    0.9417569,
                    0.67591399
                ],
                "xyz": [
                    5.25663877428971,
                    5.833743800230885,
                    5.346273263289464
                ],
                "label": "Ge",
                "properties": {}
            },
            {
                "species": [
                    {
                        "element": "Ge",
                        "occu": 1
                    }
                ],
                "abc": [
                    0.22322611,
                    0.60510156,
                    0.3190908
                ],
                "xyz": [
                    1.414292921385498,
                    3.967912915058132,
                    2.5235610940683952
                ],
                "label": "Ge",
                "properties": {}
            },
            {
                "species": [
                    {
                        "element": "Ge",
                        "occu": 1
                    }
                ],
                "abc": [
                    0.77677389,
                    0.39489844,
                    0.6809092
                ],
                "xyz": [
                    5.237812238614501,
                    1.6889750149418692,
                    5.385563435931605
                ],
                "label": "Ge",
                "properties": {}
            },
            {
                "species": [
                    {
                        "element": "Ge",
                        "occu": 1
                    }
                ],
                "abc": [
                    0.44710105,
                    0.27355959,
                    0.09283442
                ],
                "xyz": [
                    3.210242890766202,
                    1.8914665542689502,
                    0.7352929066546462
                ],
                "label": "Ge",
                "properties": {}
            },
            {
                "species": [
                    {
                        "element": "Ge",
                        "occu": 1
                    }
                ],
                "abc": [
                    0.55289895,
                    0.72644041,
                    0.90716558
                ],
                "xyz": [
                    3.4418622692337983,
                    3.7654213757310506,
                    7.173831623345354
                ],
                "label": "Ge",
                "properties": {}
            },
            {
                "species": [
                    {
                        "element": "O",
                        "occu": 1
                    }
                ],
                "abc": [
                    0.74479221,
                    0.18122304,
                    0.73544444
                ],
                "xyz": [
                    4.971927078000981,
                    -0.03061916484886318,
                    5.8165535046661345
                ],
                "label": "O",
                "properties": {}
            },
            {
                "species": [
                    {
                        "element": "O",
                        "occu": 1
                    }
                ],
                "abc": [
                    0.25520779,
                    0.81877696,
                    0.26455556
                ],
                "xyz": [
                    1.68017808199902,
                    5.687507094848863,
                    2.0925710253338656
                ],
                "label": "O",
                "properties": {}
            },
            {
                "species": [
                    {
                        "element": "O",
                        "occu": 1
                    }
                ],
                "abc": [
                    0.77132403,
                    0.37201403,
                    0.46364556
                ],
                "xyz": [
                    5.340970605533494,
                    1.9296236020857989,
                    3.667858645249297
                ],
                "label": "O",
                "properties": {}
            },
            {
                "species": [
                    {
                        "element": "O",
                        "occu": 1
                    }
                ],
                "abc": [
                    0.22867597,
                    0.62798597,
                    0.53635444
                ],
                "xyz": [
                    1.3111345544665058,
                    3.7272643279142015,
                    4.241265884750703
                ],
                "label": "O",
                "properties": {}
            },
            {
                "species": [
                    {
                        "element": "O",
                        "occu": 1
                    }
                ],
                "abc": [
                    0.7771308,
                    0.8618775,
                    0.45659044
                ],
                "xyz": [
                    5.378289881500016,
                    5.6473253526644465,
                    3.6122689903473097
                ],
                "label": "O",
                "properties": {}
            },
            {
                "species": [
                    {
                        "element": "O",
                        "occu": 1
                    }
                ],
                "abc": [
                    0.2228692,
                    0.1381225,
                    0.54340956
                ],
                "xyz": [
                    1.2738152784999839,
                    0.009562577335553213,
                    4.2968555396526895
                ],
                "label": "O",
                "properties": {}
            },
            {
                "species": [
                    {
                        "element": "O",
                        "occu": 1
                    }
                ],
                "abc": [
                    0.57767855,
                    0.8704032,
                    0.75851798
                ],
                "xyz": [
                    3.718156218108991,
                    5.1370651992311345,
                    5.998746742343797
                ],
                "label": "O",
                "properties": {}
            },
            {
                "species": [
                    {
                        "element": "O",
                        "occu": 1
                    }
                ],
                "abc": [
                    0.42232145,
                    0.1295968,
                    0.24148202
                ],
                "xyz": [
                    2.9339489418910083,
                    0.5198227307688651,
                    1.9103777876562038
                ],
                "label": "O",
                "properties": {}
            },
            {
                "species": [
                    {
                        "element": "O",
                        "occu": 1
                    }
                ],
                "abc": [
                    0.97738152,
                    0.9237635,
                    0.81010021
                ],
                "xyz": [
                    6.6125485378956075,
                    5.442007252423199,
                    6.407691023206804
                ],
                "label": "O",
                "properties": {}
            },
            {
                "species": [
                    {
                        "element": "O",
                        "occu": 1
                    }
                ],
                "abc": [
                    0.02261848,
                    0.0762365,
                    0.18989979
                ],
                "xyz": [
                    0.03955662210439248,
                    0.21488067757680063,
                    1.5014335067931956
                ],
                "label": "O",
                "properties": {}
            },
            {
                "species": [
                    {
                        "element": "O",
                        "occu": 1
                    }
                ],
                "abc": [
                    0.57485871,
                    0.49965036,
                    0.77364438
                ],
                "xyz": [
                    3.695028842057333,
                    2.304688807916109,
                    6.118197866647019
                ],
                "label": "O",
                "properties": {}
            },
            {
                "species": [
                    {
                        "element": "O",
                        "occu": 1
                    }
                ],
                "abc": [
                    0.42514129,
                    0.50034964,
                    0.22635562
                ],
                "xyz": [
                    2.9570763179426667,
                    3.3521991220838916,
                    1.7909266633529803
                ],
                "label": "O",
                "properties": {}
            },
            {
                "species": [
                    {
                        "element": "O",
                        "occu": 1
                    }
                ],
                "abc": [
                    0.68761004,
                    0.27092657,
                    0.09705059
                ],
                "xyz": [
                    4.9701636174370325,
                    1.863321921850765,
                    0.7692974150948318
                ],
                "label": "O",
                "properties": {}
            },
            {
                "species": [
                    {
                        "element": "O",
                        "occu": 1
                    }
                ],
                "abc": [
                    0.31238996,
                    0.72907343,
                    0.90294941
                ],
                "xyz": [
                    1.6819415425629676,
                    3.793566008149235,
                    7.139827114905168
                ],
                "label": "O",
                "properties": {}
            },
            {
                "species": [
                    {
                        "element": "O",
                        "occu": 1
                    }
                ],
                "abc": [
                    0.28559361,
                    0.22450593,
                    0.91660736
                ],
                "xyz": [
                    1.4867557486209673,
                    -0.04787986122571963,
                    7.247554754119989
                ],
                "label": "O",
                "properties": {}
            },
            {
                "species": [
                    {
                        "element": "O",
                        "occu": 1
                    }
                ],
                "abc": [
                    0.71440639,
                    0.77549407,
                    0.08339264
                ],
                "xyz": [
                    5.165349411379032,
                    5.70476779122572,
                    0.6615697758800119
                ],
                "label": "O",
                "properties": {}
            },
            {
                "species": [
                    {
                        "element": "O",
                        "occu": 1
                    }
                ],
                "abc": [
                    0.02454977,
                    0.52048151,
                    0.18576759
                ],
                "xyz": [
                    0.04747348283508657,
                    3.582060352768518,
                    1.4689255640725933
                ],
                "label": "O",
                "properties": {}
            },
            {
                "species": [
                    {
                        "element": "O",
                        "occu": 1
                    }
                ],
                "abc": [
                    0.97545023,
                    0.47951849,
                    0.81423241
                ],
                "xyz": [
                    6.604631677164914,
                    2.0748275772314817,
                    6.440198965927407
                ],
                "label": "O",
                "properties": {}
            }
        ]
    },
    "spacegroup": {
        "source": "spglib",
        "symbol": "P-1",
        "number": 2,
        "point_group": "-1",
        "crystal_system": "triclinic",
        "hall": "-P 1"
    },
    "dielectric": {
        "epsilon_ionic": [
            [
                4.60490892,
                -0.03653964,
                -0.07373728
            ],
            [
                -0.03653964,
                5.78478341,
                0.07506939
            ],
            [
                -0.07373728,
                0.07506939,
                4.73541139
            ]
        ],
        "epsilon_ionic_avg": 5.041701240000001,
        "epsilon_ionic_eig": [
            4.571692166426057,
            4.761815103600247,
            5.7915964499736985
        ],
        "epsilon_electronic": [
            [
                3.20701628,
                -0.00247055,
                0.0470894
            ],
            [
                -0.00246599,
                3.17389204,
                -0.00259957
            ],
            [
                0.04708805,
                -0.00259941,
                3.25507373
            ]
        ],
        "epsilon_electronic_avg": 3.2119940166666665,
        "epsilon_electronic_eig": [
            3.2840217999748584,
            3.178303191919784,
            3.1736570581053565
        ]
    },
    "phonon": {
        "lowest_freq": -0.08750197214898126,
        "frequency": [
            -0.08750197214898126,
            -0.06191560977621938,
            -0.058630245727925884,
            1.8320967764829994,
            2.133818219018991,
            2.3412771919558155,
            2.441605072408207,
            2.8940153948604714,
            3.4334598187544683,
            3.4403261403043484,
            3.7095735810597392,
            3.8421296702564605,
            3.932234948880402,
            3.998696143709551,
            4.261766189037726,
            4.305432493303285,
            4.377706283465842,
            4.487080884962691,
            4.628749684233067,
            4.927530350178872,
            5.053069695020726,
            5.101041301212314,
            5.372546670155991,
            5.575774486317824,
            5.600715763986815,
            5.849999948883217,
            6.00444395614197,
            6.151825409475275,
            6.253360156713935,
            6.261233221319876,
            6.5983813532997075,
            6.625779265867785,
            6.765979087731368,
            6.813858115374112,
            6.926911497210961,
            7.022498817401533,
            7.427187768092118,
            7.526992800625777,
            7.598535455084052,
            7.739877481327779,
            7.8444243094885815,
            7.922201957077247,
            8.0645929028818,
            8.445333138546284,
            8.615741668667974,
            8.631898416007381,
            8.7222865891103,
            8.794492134552675,
            9.016184817092261,
            9.082409635250153,
            9.333945354001496,
            9.420992382237463,
            9.49183518387555,
            9.689032713961083,
            9.842276714139246,
            10.013615210617697,
            10.103237094288502,
            10.171307837733602,
            10.274461634794388,
            10.568403121671562,
            10.997694063711917,
            11.287464044854545,
            11.414830516322139,
            11.628905865792861,
            12.355815854891496,
            12.366407374075647,
            13.491958122822671,
            13.890938175966019,
            15.30393728085199,
            15.506184846152273,
            15.760712849174118,
            15.83008915971913,
            21.515502082449903,
            21.633403921610647,
            21.99694883853072,
            22.20542224719455,
            22.62333283577831,
            22.691326956774596,
            22.720729904764482,
            23.042262489124017,
            23.61959831961829,
            23.668177882199068,
            23.744665998778206,
            23.902897350399208,
            24.3629147640256,
            25.005491961044104,
            25.276182969445415,
            25.37222558824231,
            27.808400400320114,
            27.84734528428292
        ]
    },
    "born_effective_charge": {
        "avg_abs_trace": 2.242876888888889,
        "tensors": [
            [
                [
                    2.54283,
                    0.00134,
                    -0.01275
                ],
                [
                    0.00144,
                    2.33656,
                    -0.0098
                ],
                [
                    0.04124,
                    -0.0072,
                    2.47926
                ]
            ],
            [
                [
                    2.54312,
                    0.0014,
                    -0.01271
                ],
                [
                    0.00138,
                    2.33663,
                    -0.00988
                ],
                [
                    0.04123,
                    -0.00704,
                    2.47934
                ]
            ],
            [
                [
                    2.41251,
                    -0.19258,
                    0.09901
                ],
                [
                    -0.15201,
                    2.47081,
                    -0.00603
                ],
                [
                    0.07632,
                    0.1654,
                    2.36822
                ]
            ],
            [
                [
                    2.41256,
                    -0.19216,
                    0.099
                ],
                [
                    -0.15195,
                    2.47088,
                    -0.00598
                ],
                [
                    0.07627,
                    0.16536,
                    2.36791
                ]
            ],
            [
                [
                    2.4163,
                    0.16758,
                    0.09734
                ],
                [
                    0.14728,
                    2.57495,
                    0.00206
                ],
                [
                    0.07265,
                    -0.16382,
                    2.3496
                ]
            ],
            [
                [
                    2.41641,
                    0.16732,
                    0.09748
                ],
                [
                    0.14728,
                    2.57503,
                    0.00208
                ],
                [
                    0.07262,
                    -0.16357,
                    2.34957
                ]
            ],
            [
                [
                    3.03213,
                    0.13977,
                    0.04463
                ],
                [
                    0.24766,
                    3.32961,
                    0.09325
                ],
                [
                    -0.19061,
                    -0.07453,
                    3.21001
                ]
            ],
            [
                [
                    3.03225,
                    0.13971,
                    0.04464
                ],
                [
                    0.24762,
                    3.32961,
                    0.09327
                ],
                [
                    -0.19059,
                    -0.07457,
                    3.21011
                ]
            ],
            [
                [
                    3.02532,
                    -0.14206,
                    0.06716
                ],
                [
                    -0.26836,
                    3.30117,
                    -0.06305
                ],
                [
                    -0.16908,
                    0.05255,
                    3.18041
                ]
            ],
            [
                [
                    3.02537,
                    -0.14218,
                    0.06739
                ],
                [
                    -0.26836,
                    3.30118,
                    -0.06307
                ],
                [
                    -0.16896,
                    0.05262,
                    3.1802
                ]
            ],
            [
                [
                    3.15261,
                    -0.00426,
                    -0.17962
                ],
                [
                    0.0002,
                    3.1813,
                    -0.04272
                ],
                [
                    0.45341,
                    0.00167,
                    3.10092
                ]
            ],
            [
                [
                    3.15261,
                    -0.0042,
                    -0.17959
                ],
                [
                    0.00022,
                    3.1813,
                    -0.0427
                ],
                [
                    0.45347,
                    0.00169,
                    3.10087
                ]
            ],
            [
                [
                    -1.09601,
                    0.03058,
                    -0.07909
                ],
                [
                    0.02507,
                    -3.23961,
                    -0.02499
                ],
                [
                    -0.12038,
                    -0.01409,
                    -1.4046
                ]
            ],
            [
                [
                    -1.09602,
                    0.03057,
                    -0.07881
                ],
                [
                    0.02499,
                    -3.23959,
                    -0.02488
                ],
                [
                    -0.1204,
                    -0.01419,
                    -1.40489
                ]
            ],
            [
                [
                    -1.14769,
                    0.0101,
                    -0.05389
                ],
                [
                    0.02568,
                    -1.75865,
                    0.20346
                ],
                [
                    -0.00672,
                    0.12863,
                    -2.37187
                ]
            ],
            [
                [
                    -1.1478,
                    0.01015,
                    -0.05329
                ],
                [
                    0.02568,
                    -1.75862,
                    0.2033
                ],
                [
                    -0.00671,
                    0.1288,
                    -2.37222
                ]
            ],
            [
                [
                    -1.19576,
                    -0.00623,
                    0.01052
                ],
                [
                    -0.02078,
                    -1.82809,
                    -0.18664
                ],
                [
                    0.03456,
                    -0.10044,
                    -2.46124
                ]
            ],
            [
                [
                    -1.19576,
                    -0.00641,
                    0.01031
                ],
                [
                    -0.0208,
                    -1.82812,
                    -0.18659
                ],
                [
                    0.03453,
                    -0.1005,
                    -2.46073
                ]
            ],
            [
                [
                    -2.18225,
                    -0.42715,
                    0.45838
                ],
                [
                    -0.59729,
                    -1.90455,
                    0.78718
                ],
                [
                    0.31157,
                    0.54144,
                    -1.60151
                ]
            ],
            [
                [
                    -2.18223,
                    -0.4271,
                    0.45829
                ],
                [
                    -0.59716,
                    -1.90461,
                    0.78726
                ],
                [
                    0.3116,
                    0.54161,
                    -1.60154
                ]
            ],
            [
                [
                    -2.18336,
                    0.1368,
                    -0.35738
                ],
                [
                    0.22963,
                    -1.67927,
                    0.26403
                ],
                [
                    -0.20676,
                    0.11454,
                    -1.79899
                ]
            ],
            [
                [
                    -2.18277,
                    0.13671,
                    -0.3571
                ],
                [
                    0.22955,
                    -1.67919,
                    0.26402
                ],
                [
                    -0.20676,
                    0.11456,
                    -1.79934
                ]
            ],
            [
                [
                    -2.17386,
                    0.41154,
                    0.44538
                ],
                [
                    0.58222,
                    -1.92322,
                    -0.75972
                ],
                [
                    0.3146,
                    -0.51114,
                    -1.57562
                ]
            ],
            [
                [
                    -2.17375,
                    0.41146,
                    0.44549
                ],
                [
                    0.58225,
                    -1.92321,
                    -0.75969
                ],
                [
                    0.31451,
                    -0.51106,
                    -1.57573
                ]
            ],
            [
                [
                    -2.60156,
                    0.01442,
                    0.07824
                ],
                [
                    0.0137,
                    -1.62502,
                    0.03176
                ],
                [
                    0.14566,
                    0.00997,
                    -1.5465
                ]
            ],
            [
                [
                    -2.6014,
                    0.01444,
                    0.07825
                ],
                [
                    0.01363,
                    -1.62501,
                    0.03178
                ],
                [
                    0.14538,
                    0.00997,
                    -1.54627
                ]
            ],
            [
                [
                    -1.82529,
                    0.00056,
                    -0.24558
                ],
                [
                    -0.00569,
                    -1.53665,
                    -0.03277
                ],
                [
                    -0.53609,
                    -0.03774,
                    -2.12087
                ]
            ],
            [
                [
                    -1.82523,
                    0.0006,
                    -0.24555
                ],
                [
                    -0.00576,
                    -1.53669,
                    -0.0329
                ],
                [
                    -0.53579,
                    -0.03763,
                    -2.12033
                ]
            ],
            [
                [
                    -2.17671,
                    -0.14044,
                    -0.37313
                ],
                [
                    -0.22866,
                    -1.69942,
                    -0.25603
                ],
                [
                    -0.22029,
                    -0.10562,
                    -1.80707
                ]
            ],
            [
                [
                    -2.17654,
                    -0.14029,
                    -0.37302
                ],
                [
                    -0.22867,
                    -1.6995,
                    -0.25603
                ],
                [
                    -0.22052,
                    -0.10566,
                    -1.80712
                ]
            ]
        ]
    },
    "band_gap": 3.3225,
    "is_direct": false,
    "formula": "CaGeO3"
}