{
    "mp_id": "mp-19039",
    "nelements": 3,
    "nsites": 12,
    "elements": [
        "Cd",
        "Mo",
        "O"
    ],
    "structure": {
        "@module": "pymatgen.core.structure",
        "@class": "Structure",
        "charge": null,
        "lattice": {
            "matrix": [
                [
                    -2.58424872,
                    2.58424875,
                    5.56660515
                ],
                [
                    2.58424872,
                    -2.58424875,
                    5.56660515
                ],
                [
                    2.58424875,
                    2.58424872,
                    -5.56660515
                ]
            ],
            "a": 6.65911224899421,
            "b": 6.65911224899421,
            "c": 6.65911224899421,
            "alpha": 134.33019689676735,
            "beta": 134.33019689676735,
            "gamma": 66.57272279841197,
            "volume": 148.70276129160223
        },
        "sites": [
            {
                "species": [
                    {
                        "element": "Cd",
                        "occu": 1
                    }
                ],
                "abc": [
                    0.75,
                    0.25,
                    0.5
                ],
                "xyz": [
                    1.499999968679333e-08,
                    2.584248735,
                    2.783302575
                ],
                "label": "Cd",
                "properties": {}
            },
            {
                "species": [
                    {
                        "element": "Cd",
                        "occu": 1
                    }
                ],
                "abc": [
                    0.0,
                    0.0,
                    0.0
                ],
                "xyz": [
                    0.0,
                    0.0,
                    0.0
                ],
                "label": "Cd",
                "properties": {}
            },
            {
                "species": [
                    {
                        "element": "Mo",
                        "occu": 1
                    }
                ],
                "abc": [
                    0.25,
                    0.75,
                    0.5
                ],
                "xyz": [
                    2.584248735,
                    -1.499999968679333e-08,
                    2.783302575
                ],
                "label": "Mo",
                "properties": {}
            },
            {
                "species": [
                    {
                        "element": "Mo",
                        "occu": 1
                    }
                ],
                "abc": [
                    0.5,
                    0.5,
                    0.0
                ],
                "xyz": [
                    0.0,
                    0.0,
                    5.56660515
                ],
                "label": "Mo",
                "properties": {}
            },
            {
                "species": [
                    {
                        "element": "O",
                        "occu": 1
                    }
                ],
                "abc": [
                    0.42682094,
                    0.83249234,
                    0.08291259
                ],
                "xyz": [
                    1.2626225532573707,
                    -0.8340890537813652,
                    6.548558139417553
                ],
                "label": "O",
                "properties": {}
            },
            {
                "species": [
                    {
                        "element": "O",
                        "occu": 1
                    }
                ],
                "abc": [
                    0.58249234,
                    0.99957975,
                    0.9056714
                ],
                "xyz": [
                    3.418337788781365,
                    1.2626225382573708,
                    3.7652555644175534
                ],
                "label": "O",
                "properties": {}
            },
            {
                "species": [
                    {
                        "element": "O",
                        "occu": 1
                    }
                ],
                "abc": [
                    0.09390835,
                    0.67682094,
                    0.0943286
                ],
                "xyz": [
                    1.750159681218635,
                    -1.2626225682573704,
                    3.7652555644175543
                ],
                "label": "O",
                "properties": {}
            },
            {
                "species": [
                    {
                        "element": "O",
                        "occu": 1
                    }
                ],
                "abc": [
                    0.74957975,
                    0.34390835,
                    0.91708741
                ],
                "xyz": [
                    1.3216261967426295,
                    3.4183377737813654,
                    0.9819529894175529
                ],
                "label": "O",
                "properties": {}
            },
            {
                "species": [
                    {
                        "element": "O",
                        "occu": 1
                    }
                ],
                "abc": [
                    0.00042025,
                    0.90609165,
                    0.58291259
                ],
                "xyz": [
                    3.84687128825737,
                    -0.8340890687813654,
                    1.8013495855824466
                ],
                "label": "O",
                "properties": {}
            },
            {
                "species": [
                    {
                        "element": "O",
                        "occu": 1
                    }
                ],
                "abc": [
                    0.65609165,
                    0.57317906,
                    0.4056714
                ],
                "xyz": [
                    0.8340890537813652,
                    1.2626225532573707,
                    4.584652160582447
                ],
                "label": "O",
                "properties": {}
            },
            {
                "species": [
                    {
                        "element": "O",
                        "occu": 1
                    }
                ],
                "abc": [
                    0.16750766,
                    0.25042025,
                    0.5943286
                ],
                "xyz": [
                    1.7501596962186348,
                    1.3216261667426297,
                    -0.9819529894175534
                ],
                "label": "O",
                "properties": {}
            },
            {
                "species": [
                    {
                        "element": "O",
                        "occu": 1
                    }
                ],
                "abc": [
                    0.32317906,
                    0.41750766,
                    0.41708741
                ],
                "xyz": [
                    1.3216261817426296,
                    0.8340890387813654,
                    1.8013495855824466
                ],
                "label": "O",
                "properties": {}
            }
        ]
    },
    "spacegroup": {
        "source": "spglib",
        "symbol": "I4_1/a",
        "number": 88,
        "point_group": "4/m",
        "crystal_system": "tetragonal",
        "hall": "I 4bw -1bw"
    },
    "dielectric": {
        "epsilon_ionic": [
            [
                13.16128413,
                -7.242e-05,
                -1e-08
            ],
            [
                -7.242e-05,
                13.16047117,
                -0.0
            ],
            [
                -1e-08,
                -0.0,
                8.25652507
            ]
        ],
        "epsilon_ionic_avg": 11.526093456666663,
        "epsilon_ionic_eig": [
            13.161290530911156,
            13.160464769088833,
            8.25652507
        ],
        "epsilon_electronic": [
            [
                5.22395999,
                8e-08,
                0.0
            ],
            [
                -8e-08,
                5.22395999,
                0.0
            ],
            [
                0.0,
                0.0,
                5.10601414
            ]
        ],
        "epsilon_electronic_avg": 5.184644706666667,
        "epsilon_electronic_eig": [
            5.22395999,
            5.22395999,
            5.10601414
        ]
    },
    "phonon": {
        "lowest_freq": -0.014162843436243968,
        "frequency": [
            -0.014162843436243968,
            -0.013540496490822354,
            -0.013540496490822354,
            2.6502653897261936,
            3.100657112331494,
            3.100657112331494,
            3.3924157239506796,
            3.3924157239506796,
            3.918136511792402,
            4.02960655341457,
            4.219377188394574,
            4.219377188394574,
            4.560537995629964,
            4.560537995629964,
            5.6009175174238806,
            5.770048650293578,
            7.060250692793733,
            8.248939110017172,
            8.248939110017172,
            8.299447718121462,
            8.299447718121462,
            8.607943098591708,
            8.796828807815498,
            11.347920731682834,
            11.725478088976901,
            11.725478088976901,
            12.587002329388136,
            12.903905280865409,
            20.89351351437805,
            21.836308591484013,
            21.836308591484013,
            22.185983885421685,
            22.185983885421685,
            24.012683730655343,
            24.90787295651151,
            24.94960798058046
        ]
    },
    "born_effective_charge": {
        "avg_abs_trace": 2.717662222222222,
        "tensors": [
            [
                [
                    3.14696,
                    0.19621,
                    8e-05
                ],
                [
                    -0.19618,
                    3.1469,
                    6e-05
                ],
                [
                    -0.0,
                    0.0,
                    2.80039
                ]
            ],
            [
                [
                    3.14696,
                    0.19621,
                    -8e-05
                ],
                [
                    -0.19618,
                    3.1469,
                    -6e-05
                ],
                [
                    -0.0,
                    0.0,
                    2.80039
                ]
            ],
            [
                [
                    5.03277,
                    -0.40634,
                    -8e-05
                ],
                [
                    0.40643,
                    5.03274,
                    2e-05
                ],
                [
                    -0.0,
                    0.0,
                    5.2992
                ]
            ],
            [
                [
                    5.03277,
                    -0.40634,
                    8e-05
                ],
                [
                    0.40643,
                    5.03274,
                    -2e-05
                ],
                [
                    -0.0,
                    0.0,
                    5.2992
                ]
            ],
            [
                [
                    -2.34699,
                    0.97773,
                    -0.85072
                ],
                [
                    0.87224,
                    -1.74279,
                    0.86873
                ],
                [
                    -0.99014,
                    0.71307,
                    -2.0249
                ]
            ],
            [
                [
                    -1.74272,
                    -0.8723,
                    -0.86871
                ],
                [
                    -0.97769,
                    -2.34696,
                    -0.85065
                ],
                [
                    -0.71307,
                    -0.99014,
                    -2.0249
                ]
            ],
            [
                [
                    -1.74322,
                    -0.87276,
                    0.86894
                ],
                [
                    -0.97764,
                    -2.34687,
                    0.8505
                ],
                [
                    0.71307,
                    0.99014,
                    -2.0249
                ]
            ],
            [
                [
                    -2.34679,
                    0.97746,
                    0.85048
                ],
                [
                    0.87285,
                    -1.74302,
                    -0.86884
                ],
                [
                    0.99014,
                    -0.71307,
                    -2.0249
                ]
            ],
            [
                [
                    -2.34699,
                    0.97773,
                    0.85072
                ],
                [
                    0.87224,
                    -1.74279,
                    -0.86873
                ],
                [
                    0.99014,
                    -0.71295,
                    -2.0249
                ]
            ],
            [
                [
                    -1.74272,
                    -0.8723,
                    0.86871
                ],
                [
                    -0.97769,
                    -2.34696,
                    0.85065
                ],
                [
                    0.71295,
                    0.99014,
                    -2.0249
                ]
            ],
            [
                [
                    -1.74322,
                    -0.87276,
                    -0.86894
                ],
                [
                    -0.97764,
                    -2.34687,
                    -0.8505
                ],
                [
                    -0.71295,
                    -0.99014,
                    -2.0249
                ]
            ],
            [
                [
                    -2.34679,
                    0.97746,
                    -0.85048
                ],
                [
                    0.87285,
                    -1.74302,
                    0.86884
                ],
                [
                    -0.99014,
                    0.71295,
                    -2.0249
                ]
            ]
        ]
    },
    "band_gap": 2.2758,
    "is_direct": false,
    "formula": "CdMoO4"
}