{
    "mp_id": "mp-1342",
    "nelements": 2,
    "nsites": 2,
    "elements": [
        "Ba",
        "O"
    ],
    "structure": {
        "@module": "pymatgen.core.structure",
        "@class": "Structure",
        "charge": null,
        "lattice": {
            "matrix": [
                [
                    0.0,
                    2.766783,
                    2.766783
                ],
                [
                    2.766783,
                    0.0,
                    2.766783
                ],
                [
                    2.766783,
                    2.766783,
                    0.0
                ]
            ],
            "a": 3.9128220427433194,
            "b": 3.9128220427433194,
            "c": 3.9128220427433194,
            "alpha": 60.00000000000001,
            "beta": 60.00000000000001,
            "gamma": 60.00000000000001,
            "volume": 42.359935619473156
        },
        "sites": [
            {
                "species": [
                    {
                        "element": "Ba",
                        "occu": 1
                    }
                ],
                "abc": [
                    0.0,
                    0.0,
                    0.0
                ],
                "xyz": [
                    0.0,
                    0.0,
                    0.0
                ],
                "label": "Ba",
                "properties": {}
            },
            {
                "species": [
                    {
                        "element": "O",
                        "occu": 1
                    }
                ],
                "abc": [
                    0.5,
                    0.5,
                    0.5
                ],
                "xyz": [
                    2.766783,
                    2.766783,
                    2.766783
                ],
                "label": "O",
                "properties": {}
            }
        ]
    },
    "spacegroup": {
        "source": "spglib",
        "symbol": "Fm-3m",
        "number": 225,
        "point_group": "m-3m",
        "crystal_system": "cubic",
        "hall": "-F 4 2 3"
    },
    "dielectric": {
        "epsilon_ionic": [
            [
                61.58837786,
                0.0,
                0.0
            ],
            [
                0.0,
                61.58965142,
                0.0
            ],
            [
                0.0,
                0.0,
                61.58397549
            ]
        ],
        "epsilon_ionic_avg": 61.58733492333334,
        "epsilon_ionic_eig": [
            61.58837786,
            61.58965142,
            61.58397549
        ],
        "epsilon_electronic": [
            [
                4.36633388,
                -0.0,
                -0.0
            ],
            [
                -0.0,
                4.36633388,
                -0.0
            ],
            [
                -0.0,
                0.0,
                4.36633388
            ]
        ],
        "epsilon_electronic_avg": 4.36633388,
        "epsilon_electronic_eig": [
            4.36633388,
            4.36633388,
            4.36633388
        ]
    },
    "phonon": {
        "lowest_freq": -0.008527238609430512,
        "frequency": [
            -0.008527238609430512,
            -0.008527238609430512,
            -0.008527238609430512,
            3.0211708701541595,
            3.0211708701541595,
            3.0211708701541595
        ]
    },
    "born_effective_charge": {
        "avg_abs_trace": 2.7676366666666663,
        "tensors": [
            [
                [
                    2.76766,
                    0.0,
                    0.0
                ],
                [
                    0.0,
                    2.76769,
                    0.0
                ],
                [
                    0.0,
                    0.0,
                    2.76756
                ]
            ],
            [
                [
                    -2.76766,
                    -0.0,
                    0.0
                ],
                [
                    0.0,
                    -2.76769,
                    0.0
                ],
                [
                    0.0,
                    0.0,
                    -2.76756
                ]
            ]
        ]
    },
    "band_gap": 1.8633,
    "is_direct": true,
    "formula": "BaO"
}