{
    "mp_id": "mp-17708",
    "nelements": 3,
    "nsites": 28,
    "elements": [
        "Ge",
        "O",
        "Sb"
    ],
    "structure": {
        "@module": "pymatgen.core.structure",
        "@class": "Structure",
        "charge": null,
        "lattice": {
            "matrix": [
                [
                    7.04973967,
                    -4e-07,
                    0.0
                ],
                [
                    -3.52486899,
                    6.10525384,
                    0.0
                ],
                [
                    0.0,
                    0.0,
                    9.83127192
                ]
            ],
            "a": 7.049739670000012,
            "b": 7.049739416992543,
            "c": 9.83127192,
            "alpha": 90.0,
            "beta": 90.0,
            "gamma": 119.99999650809532,
            "volume": 423.14235552799187
        },
        "sites": [
            {
                "species": [
                    {
                        "element": "Ge",
                        "occu": 1
                    }
                ],
                "abc": [
                    0.21302216,
                    0.91993598,
                    0.25
                ],
                "xyz": [
                    -1.7409030367461729,
                    5.6164425892402985,
                    2.45781798
                ],
                "label": "Ge",
                "properties": {}
            },
            {
                "species": [
                    {
                        "element": "Ge",
                        "occu": 1
                    }
                ],
                "abc": [
                    0.29308618,
                    0.21302216,
                    0.75
                ],
                "xyz": [
                    1.3153060639079421,
                    1.3005542431106223,
                    7.373453940000001
                ],
                "label": "Ge",
                "properties": {}
            },
            {
                "species": [
                    {
                        "element": "Ge",
                        "occu": 1
                    }
                ],
                "abc": [
                    0.91993598,
                    0.70691382,
                    0.75
                ],
                "xyz": [
                    3.993530569345885,
                    4.315887946129676,
                    7.373453940000001
                ],
                "label": "Ge",
                "properties": {}
            },
            {
                "species": [
                    {
                        "element": "Ge",
                        "occu": 1
                    }
                ],
                "abc": [
                    0.08006402,
                    0.29308618,
                    0.25
                ],
                "xyz": [
                    -0.46865988934588465,
                    1.789365493870323,
                    2.45781798
                ],
                "label": "Ge",
                "properties": {}
            },
            {
                "species": [
                    {
                        "element": "Ge",
                        "occu": 1
                    }
                ],
                "abc": [
                    0.78697784,
                    0.08006402,
                    0.75
                ],
                "xyz": [
                    5.265773716746174,
                    0.48881085075970077,
                    7.373453940000001
                ],
                "label": "Ge",
                "properties": {}
            },
            {
                "species": [
                    {
                        "element": "Ge",
                        "occu": 1
                    }
                ],
                "abc": [
                    0.70691382,
                    0.78697784,
                    0.25
                ],
                "xyz": [
                    2.2095646160920586,
                    4.804699196889377,
                    2.45781798
                ],
                "label": "Ge",
                "properties": {}
            },
            {
                "species": [
                    {
                        "element": "Sb",
                        "occu": 1
                    }
                ],
                "abc": [
                    0.666667,
                    0.333333,
                    0.48426861
                ],
                "xyz": [
                    3.52487364153622,
                    2.0350823115819194,
                    4.760976387230431
                ],
                "label": "Sb",
                "properties": {}
            },
            {
                "species": [
                    {
                        "element": "Sb",
                        "occu": 1
                    }
                ],
                "abc": [
                    0.333333,
                    0.666667,
                    0.98426861
                ],
                "xyz": [
                    -2.9615362198143202e-06,
                    4.07017112841808,
                    9.676612347230432
                ],
                "label": "Sb",
                "properties": {}
            },
            {
                "species": [
                    {
                        "element": "Sb",
                        "occu": 1
                    }
                ],
                "abc": [
                    0.333333,
                    0.666667,
                    0.51573139
                ],
                "xyz": [
                    -2.9615362198143202e-06,
                    4.07017112841808,
                    5.07029553276957
                ],
                "label": "Sb",
                "properties": {}
            },
            {
                "species": [
                    {
                        "element": "Sb",
                        "occu": 1
                    }
                ],
                "abc": [
                    0.666667,
                    0.333333,
                    0.01573139
                ],
                "xyz": [
                    3.52487364153622,
                    2.0350823115819194,
                    0.15465957276956882
                ],
                "label": "Sb",
                "properties": {}
            },
            {
                "species": [
                    {
                        "element": "O",
                        "occu": 1
                    }
                ],
                "abc": [
                    0.65491634,
                    0.09035307,
                    0.90056245
                ],
                "xyz": [
                    4.298506968034908,
                    0.5516281656067527,
                    8.853674326891404
                ],
                "label": "O",
                "properties": {}
            },
            {
                "species": [
                    {
                        "element": "O",
                        "occu": 1
                    }
                ],
                "abc": [
                    0.56456327,
                    0.65491634,
                    0.40056245
                ],
                "xyz": [
                    1.6715297828336242,
                    3.9984302738384376,
                    3.9380383668914045
                ],
                "label": "O",
                "properties": {}
            },
            {
                "species": [
                    {
                        "element": "O",
                        "occu": 1
                    }
                ],
                "abc": [
                    0.09035307,
                    0.43543673,
                    0.40056245
                ],
                "xyz": [
                    -0.8978918047987159,
                    2.658451731768315,
                    3.9380383668914045
                ],
                "label": "O",
                "properties": {}
            },
            {
                "species": [
                    {
                        "element": "O",
                        "occu": 1
                    }
                ],
                "abc": [
                    0.90964693,
                    0.56456327,
                    0.90056245
                ],
                "xyz": [
                    4.4227624847987155,
                    3.446801708231684,
                    8.853674326891404
                ],
                "label": "O",
                "properties": {}
            },
            {
                "species": [
                    {
                        "element": "O",
                        "occu": 1
                    }
                ],
                "abc": [
                    0.43543673,
                    0.34508366,
                    0.90056245
                ],
                "xyz": [
                    1.8533408971663756,
                    2.106823166161562,
                    8.853674326891404
                ],
                "label": "O",
                "properties": {}
            },
            {
                "species": [
                    {
                        "element": "O",
                        "occu": 1
                    }
                ],
                "abc": [
                    0.34508366,
                    0.90964693,
                    0.40056245
                ],
                "xyz": [
                    -0.7736362880349081,
                    5.553625274393247,
                    3.9380383668914045
                ],
                "label": "O",
                "properties": {}
            },
            {
                "species": [
                    {
                        "element": "O",
                        "occu": 1
                    }
                ],
                "abc": [
                    0.34508366,
                    0.90964693,
                    0.09943755
                ],
                "xyz": [
                    -0.7736362880349081,
                    5.553625274393247,
                    0.9775975931085961
                ],
                "label": "O",
                "properties": {}
            },
            {
                "species": [
                    {
                        "element": "O",
                        "occu": 1
                    }
                ],
                "abc": [
                    0.43543673,
                    0.34508366,
                    0.59943755
                ],
                "xyz": [
                    1.8533408971663756,
                    2.106823166161562,
                    5.893233553108597
                ],
                "label": "O",
                "properties": {}
            },
            {
                "species": [
                    {
                        "element": "O",
                        "occu": 1
                    }
                ],
                "abc": [
                    0.90964693,
                    0.56456327,
                    0.59943755
                ],
                "xyz": [
                    4.4227624847987155,
                    3.446801708231684,
                    5.893233553108597
                ],
                "label": "O",
                "properties": {}
            },
            {
                "species": [
                    {
                        "element": "O",
                        "occu": 1
                    }
                ],
                "abc": [
                    0.09035307,
                    0.43543673,
                    0.09943755
                ],
                "xyz": [
                    -0.8978918047987159,
                    2.658451731768315,
                    0.9775975931085961
                ],
                "label": "O",
                "properties": {}
            },
            {
                "species": [
                    {
                        "element": "O",
                        "occu": 1
                    }
                ],
                "abc": [
                    0.56456327,
                    0.65491634,
                    0.09943755
                ],
                "xyz": [
                    1.6715297828336242,
                    3.9984302738384376,
                    0.9775975931085961
                ],
                "label": "O",
                "properties": {}
            },
            {
                "species": [
                    {
                        "element": "O",
                        "occu": 1
                    }
                ],
                "abc": [
                    0.65491634,
                    0.09035307,
                    0.59943755
                ],
                "xyz": [
                    4.298506968034908,
                    0.5516281656067527,
                    5.893233553108597
                ],
                "label": "O",
                "properties": {}
            },
            {
                "species": [
                    {
                        "element": "O",
                        "occu": 1
                    }
                ],
                "abc": [
                    0.72765223,
                    0.80085338,
                    0.75
                ],
                "xyz": [
                    2.3068555470962786,
                    4.8894128824610865,
                    7.373453940000001
                ],
                "label": "O",
                "properties": {}
            },
            {
                "species": [
                    {
                        "element": "O",
                        "occu": 1
                    }
                ],
                "abc": [
                    0.92679885,
                    0.72765223,
                    0.25
                ],
                "xyz": [
                    3.9688118379240316,
                    4.442501200672522,
                    2.45781798
                ],
                "label": "O",
                "properties": {}
            },
            {
                "species": [
                    {
                        "element": "O",
                        "occu": 1
                    }
                ],
                "abc": [
                    0.80085338,
                    0.07320115,
                    0.25
                ],
                "xyz": [
                    5.387783379172246,
                    0.446911281788564,
                    2.45781798
                ],
                "label": "O",
                "properties": {}
            },
            {
                "species": [
                    {
                        "element": "O",
                        "occu": 1
                    }
                ],
                "abc": [
                    0.19914662,
                    0.92679885,
                    0.75
                ],
                "xyz": [
                    -1.862912699172246,
                    5.658342158211435,
                    7.373453940000001
                ],
                "label": "O",
                "properties": {}
            },
            {
                "species": [
                    {
                        "element": "O",
                        "occu": 1
                    }
                ],
                "abc": [
                    0.07320115,
                    0.27234777,
                    0.75
                ],
                "xyz": [
                    -0.44394115792403177,
                    1.6627522393274765,
                    7.373453940000001
                ],
                "label": "O",
                "properties": {}
            },
            {
                "species": [
                    {
                        "element": "O",
                        "occu": 1
                    }
                ],
                "abc": [
                    0.27234777,
                    0.19914662,
                    0.25
                ],
                "xyz": [
                    1.218015132903722,
                    1.2158405575389128,
                    2.45781798
                ],
                "label": "O",
                "properties": {}
            }
        ]
    },
    "spacegroup": {
        "source": "spglib",
        "symbol": "P6_3/m",
        "number": 176,
        "point_group": "6/m",
        "crystal_system": "hexagonal",
        "hall": "-P 6c"
    },
    "dielectric": {
        "epsilon_ionic": [
            [
                5.87942213,
                5.88e-06,
                -0.0
            ],
            [
                5.88e-06,
                5.87929613,
                -0.0
            ],
            [
                -0.0,
                -0.0,
                3.90339803
            ]
        ],
        "epsilon_ionic_avg": 5.22070543,
        "epsilon_ionic_eig": [
            5.879422403805006,
            5.879295856194994,
            3.90339803
        ],
        "epsilon_electronic": [
            [
                4.00984734,
                1.5e-07,
                0.0
            ],
            [
                -1.5e-07,
                4.00984743,
                0.0
            ],
            [
                0.0,
                0.0,
                3.73016778
            ]
        ],
        "epsilon_electronic_avg": 3.9166208500000006,
        "epsilon_electronic_eig": [
            4.0098473850000005,
            4.0098473850000005,
            3.73016778
        ]
    },
    "phonon": {
        "lowest_freq": -0.044200267172754694,
        "frequency": [
            -0.044200267172754694,
            -0.04420026667511037,
            -0.03419964653277444,
            1.710734472976538,
            1.7107344801196724,
            1.8215994867849103,
            1.8215995069100914,
            1.8288305351916596,
            1.828830541873529,
            2.136522173586442,
            2.63200497980385,
            2.6320049937324024,
            2.94005900485986,
            2.9400590214853852,
            3.141643402124345,
            3.537652710889268,
            3.592942259249921,
            3.7157208185870814,
            4.058185261105468,
            4.058185297239865,
            4.218070526676386,
            4.218070561441115,
            4.399958556705834,
            4.399958559483134,
            4.80064553018164,
            4.800645537818117,
            4.993246508070174,
            5.317499746212512,
            5.840885580649133,
            5.840885580649133,
            5.922922243148745,
            5.922922263780463,
            6.147073865575466,
            6.31923096258666,
            6.715878816864251,
            6.984405200636859,
            7.060138344525646,
            7.060138344525646,
            7.3806985881226,
            7.380698604679307,
            7.777933351419424,
            7.777933367130547,
            7.969021725306571,
            7.969021755975345,
            8.323076533892928,
            8.900049826551138,
            10.555568997130015,
            10.561917340221047,
            10.959142302033625,
            10.959142335485165,
            11.71367761060303,
            11.713677652332048,
            11.731419433470935,
            11.731419475136844,
            12.120596453444662,
            12.402944462580056,
            12.402944521695085,
            12.64850276683326,
            12.980297766586359,
            13.136298572204568,
            14.833212766388248,
            14.838993153444557,
            15.941047771973281,
            15.941047848630769,
            16.078729581747858,
            16.07872965774893,
            22.406713836997927,
            22.406713891535183,
            22.417605824343774,
            22.41760587885453,
            22.924579222938505,
            22.924579276243758,
            23.16119081775605,
            23.16119087051675,
            23.802696439295634,
            24.173329476492125,
            24.204808394489707,
            25.419777991859924,
            25.780372760211108,
            26.009550016828136,
            26.3241787328705,
            26.32417887213418,
            26.367449160549228,
            26.367449299584365
        ]
    },
    "born_effective_charge": {
        "avg_abs_trace": 2.6113396428571427,
        "tensors": [
            [
                [
                    4.14905,
                    0.10828,
                    0.0
                ],
                [
                    -0.36087,
                    3.07509,
                    0.0
                ],
                [
                    -4e-05,
                    1e-05,
                    3.46156
                ]
            ],
            [
                [
                    3.453,
                    0.76288,
                    0.0
                ],
                [
                    0.29352,
                    3.77126,
                    0.0
                ],
                [
                    -3e-05,
                    -2e-05,
                    3.46156
                ]
            ],
            [
                [
                    3.23425,
                    -0.16744,
                    0.0
                ],
                [
                    -0.63668,
                    3.98998,
                    0.0
                ],
                [
                    -1e-05,
                    4e-05,
                    3.46156
                ]
            ],
            [
                [
                    3.23445,
                    -0.16728,
                    0.0
                ],
                [
                    -0.63681,
                    3.99008,
                    0.0
                ],
                [
                    1e-05,
                    -4e-05,
                    3.46156
                ]
            ],
            [
                [
                    4.14911,
                    0.1083,
                    0.0
                ],
                [
                    -0.36092,
                    3.07509,
                    0.0
                ],
                [
                    4e-05,
                    -1e-05,
                    3.46156
                ]
            ],
            [
                [
                    3.45322,
                    0.76269,
                    0.0
                ],
                [
                    0.29333,
                    3.77134,
                    0.0
                ],
                [
                    3e-05,
                    2e-05,
                    3.46156
                ]
            ],
            [
                [
                    4.03482,
                    -0.19374,
                    0.00016
                ],
                [
                    0.19382,
                    4.03459,
                    0.00025
                ],
                [
                    -0.0,
                    0.0,
                    3.32066
                ]
            ],
            [
                [
                    4.03477,
                    -0.19395,
                    -0.0001
                ],
                [
                    0.194,
                    4.03472,
                    -0.00013
                ],
                [
                    -0.0,
                    0.0,
                    3.32066
                ]
            ],
            [
                [
                    4.03477,
                    -0.19395,
                    0.0001
                ],
                [
                    0.194,
                    4.03472,
                    0.00013
                ],
                [
                    -0.0,
                    0.0,
                    3.32094
                ]
            ],
            [
                [
                    4.03482,
                    -0.19374,
                    -0.00016
                ],
                [
                    0.19382,
                    4.03459,
                    -0.00025
                ],
                [
                    -0.0,
                    0.0,
                    3.32094
                ]
            ],
            [
                [
                    -1.73825,
                    0.4093,
                    1.04019
                ],
                [
                    0.46001,
                    -2.20363,
                    -0.74884
                ],
                [
                    0.83047,
                    -0.27078,
                    -2.26946
                ]
            ],
            [
                [
                    -2.46389,
                    -0.04092,
                    1.16849
                ],
                [
                    0.00957,
                    -1.4779,
                    0.52594
                ],
                [
                    0.64974,
                    0.58381,
                    -2.26946
                ]
            ],
            [
                [
                    -1.71057,
                    -0.44429,
                    -0.12872
                ],
                [
                    -0.3935,
                    -2.23087,
                    -1.27524
                ],
                [
                    0.18073,
                    -0.8546,
                    -2.26946
                ]
            ],
            [
                [
                    -1.71078,
                    -0.44421,
                    0.12843
                ],
                [
                    -0.39346,
                    -2.23093,
                    1.2751
                ],
                [
                    -0.18073,
                    0.8546,
                    -2.26946
                ]
            ],
            [
                [
                    -2.46385,
                    -0.04119,
                    -1.16861
                ],
                [
                    0.00965,
                    -1.47807,
                    -0.52622
                ],
                [
                    -0.64974,
                    -0.58381,
                    -2.26946
                ]
            ],
            [
                [
                    -1.73799,
                    0.40954,
                    -1.03988
                ],
                [
                    0.4598,
                    -2.20358,
                    0.74887
                ],
                [
                    -0.83047,
                    0.27078,
                    -2.26946
                ]
            ],
            [
                [
                    -1.73799,
                    0.40954,
                    1.03988
                ],
                [
                    0.4598,
                    -2.20358,
                    -0.74887
                ],
                [
                    0.83061,
                    -0.27083,
                    -2.26952
                ]
            ],
            [
                [
                    -2.46385,
                    -0.04119,
                    1.16861
                ],
                [
                    0.00965,
                    -1.47807,
                    0.52622
                ],
                [
                    0.64985,
                    0.58392,
                    -2.26952
                ]
            ],
            [
                [
                    -1.71078,
                    -0.44421,
                    -0.12843
                ],
                [
                    -0.39346,
                    -2.23093,
                    -1.2751
                ],
                [
                    0.18076,
                    -0.85475,
                    -2.26952
                ]
            ],
            [
                [
                    -1.71057,
                    -0.44429,
                    0.12872
                ],
                [
                    -0.3935,
                    -2.23087,
                    1.27524
                ],
                [
                    -0.18076,
                    0.85475,
                    -2.26952
                ]
            ],
            [
                [
                    -2.46389,
                    -0.04092,
                    -1.16849
                ],
                [
                    0.00957,
                    -1.4779,
                    -0.52594
                ],
                [
                    -0.64985,
                    -0.58392,
                    -2.26952
                ]
            ],
            [
                [
                    -1.73825,
                    0.4093,
                    -1.04019
                ],
                [
                    0.46001,
                    -2.20363,
                    0.74884
                ],
                [
                    -0.83061,
                    0.27083,
                    -2.26952
                ]
            ],
            [
                [
                    -2.38388,
                    0.91096,
                    0.0
                ],
                [
                    1.02053,
                    -2.33667,
                    0.0
                ],
                [
                    5e-05,
                    -4e-05,
                    -1.13644
                ]
            ],
            [
                [
                    -3.18461,
                    -0.55795,
                    0.0
                ],
                [
                    -0.4482,
                    -1.53588,
                    0.0
                ],
                [
                    6e-05,
                    2e-05,
                    -1.13644
                ]
            ],
            [
                [
                    -1.51245,
                    -0.51713,
                    0.0
                ],
                [
                    -0.40762,
                    -3.20806,
                    0.0
                ],
                [
                    -1e-05,
                    -6e-05,
                    -1.13644
                ]
            ],
            [
                [
                    -1.51208,
                    -0.51711,
                    0.0
                ],
                [
                    -0.40763,
                    -3.20848,
                    0.0
                ],
                [
                    1e-05,
                    6e-05,
                    -1.13644
                ]
            ],
            [
                [
                    -3.18474,
                    -0.55805,
                    0.0
                ],
                [
                    -0.44859,
                    -1.53581,
                    0.0
                ],
                [
                    -6e-05,
                    -2e-05,
                    -1.13644
                ]
            ],
            [
                [
                    -2.38386,
                    0.91076,
                    0.0
                ],
                [
                    1.02018,
                    -2.33659,
                    0.0
                ],
                [
                    -5e-05,
                    4e-05,
                    -1.13644
                ]
            ]
        ]
    },
    "band_gap": 2.7621999999999995,
    "is_direct": false,
    "formula": "Ge3Sb2O9"
}