{
    "mp_id": "mp-19219",
    "nelements": 3,
    "nsites": 16,
    "elements": [
        "Li",
        "O",
        "V"
    ],
    "structure": {
        "@module": "pymatgen.core.structure",
        "@class": "Structure",
        "charge": null,
        "lattice": {
            "matrix": [
                [
                    6.31163494,
                    0.0,
                    0.0
                ],
                [
                    0.0,
                    5.43860301,
                    0.0
                ],
                [
                    0.0,
                    0.0,
                    4.93740758
                ]
            ],
            "a": 6.31163494,
            "b": 5.43860301,
            "c": 4.93740758,
            "alpha": 90.0,
            "beta": 90.0,
            "gamma": 90.0,
            "volume": 169.48380666162254
        },
        "sites": [
            {
                "species": [
                    {
                        "element": "Li",
                        "occu": 1
                    }
                ],
                "abc": [
                    0.24745358,
                    0.66816424,
                    0.01006178
                ],
                "xyz": [
                    1.5618366615560852,
                    3.633880046838362,
                    0.0496791088402924
                ],
                "label": "Li",
                "properties": {}
            },
            {
                "species": [
                    {
                        "element": "Li",
                        "occu": 1
                    }
                ],
                "abc": [
                    0.25254642,
                    0.33183576,
                    0.51006178
                ],
                "xyz": [
                    1.5939808084439149,
                    1.8047229631616373,
                    2.5183828988402928
                ],
                "label": "Li",
                "properties": {}
            },
            {
                "species": [
                    {
                        "element": "Li",
                        "occu": 1
                    }
                ],
                "abc": [
                    0.74745358,
                    0.33183576,
                    0.51006178
                ],
                "xyz": [
                    4.717654131556085,
                    1.8047229631616373,
                    2.5183828988402928
                ],
                "label": "Li",
                "properties": {}
            },
            {
                "species": [
                    {
                        "element": "Li",
                        "occu": 1
                    }
                ],
                "abc": [
                    0.75254642,
                    0.66816424,
                    0.01006178
                ],
                "xyz": [
                    4.749798278443915,
                    3.633880046838362,
                    0.0496791088402924
                ],
                "label": "Li",
                "properties": {}
            },
            {
                "species": [
                    {
                        "element": "Li",
                        "occu": 1
                    }
                ],
                "abc": [
                    0.5,
                    0.16670047,
                    0.01052439
                ],
                "xyz": [
                    3.15581747,
                    0.9066176779104146,
                    0.051963202960876205
                ],
                "label": "Li",
                "properties": {}
            },
            {
                "species": [
                    {
                        "element": "Li",
                        "occu": 1
                    }
                ],
                "abc": [
                    0.0,
                    0.83329953,
                    0.51052439
                ],
                "xyz": [
                    0.0,
                    4.531985332089585,
                    2.5206669929608765
                ],
                "label": "Li",
                "properties": {}
            },
            {
                "species": [
                    {
                        "element": "V",
                        "occu": 1
                    }
                ],
                "abc": [
                    0.0,
                    0.16976195,
                    0.00149785
                ],
                "xyz": [
                    0.0,
                    0.9232678522534694,
                    0.0073954959437030005
                ],
                "label": "V",
                "properties": {}
            },
            {
                "species": [
                    {
                        "element": "V",
                        "occu": 1
                    }
                ],
                "abc": [
                    0.5,
                    0.83023805,
                    0.50149785
                ],
                "xyz": [
                    3.15581747,
                    4.51533515774653,
                    2.4760992859437034
                ],
                "label": "V",
                "properties": {}
            },
            {
                "species": [
                    {
                        "element": "O",
                        "occu": 1
                    }
                ],
                "abc": [
                    0.22602406,
                    0.32062442,
                    0.11101594
                ],
                "xyz": [
                    1.4265813543766563,
                    1.7437489356915041,
                    0.5481309436568252
                ],
                "label": "O",
                "properties": {}
            },
            {
                "species": [
                    {
                        "element": "O",
                        "occu": 1
                    }
                ],
                "abc": [
                    0.0,
                    0.17252448,
                    0.65197974
                ],
                "xyz": [
                    0.0,
                    0.9382921562266847,
                    3.2190897102824296
                ],
                "label": "O",
                "properties": {}
            },
            {
                "species": [
                    {
                        "element": "O",
                        "occu": 1
                    }
                ],
                "abc": [
                    0.77397594,
                    0.32062442,
                    0.11101594
                ],
                "xyz": [
                    4.885053585623344,
                    1.7437489356915041,
                    0.5481309436568252
                ],
                "label": "O",
                "properties": {}
            },
            {
                "species": [
                    {
                        "element": "O",
                        "occu": 1
                    }
                ],
                "abc": [
                    0.27397594,
                    0.67937558,
                    0.61101594
                ],
                "xyz": [
                    1.7292361156233436,
                    3.694854074308495,
                    3.0168347336568258
                ],
                "label": "O",
                "properties": {}
            },
            {
                "species": [
                    {
                        "element": "O",
                        "occu": 1
                    }
                ],
                "abc": [
                    0.72602406,
                    0.67937558,
                    0.61101594
                ],
                "xyz": [
                    4.582398824376656,
                    3.694854074308495,
                    3.0168347336568258
                ],
                "label": "O",
                "properties": {}
            },
            {
                "species": [
                    {
                        "element": "O",
                        "occu": 1
                    }
                ],
                "abc": [
                    0.5,
                    0.13277475,
                    0.60964058
                ],
                "xyz": [
                    3.15581747,
                    0.7221091550019975,
                    3.0100440207675967
                ],
                "label": "O",
                "properties": {}
            },
            {
                "species": [
                    {
                        "element": "O",
                        "occu": 1
                    }
                ],
                "abc": [
                    0.0,
                    0.86722525,
                    0.10964058
                ],
                "xyz": [
                    0.0,
                    4.716493854998002,
                    0.5413402307675964
                ],
                "label": "O",
                "properties": {}
            },
            {
                "species": [
                    {
                        "element": "O",
                        "occu": 1
                    }
                ],
                "abc": [
                    0.5,
                    0.82747552,
                    0.15197974
                ],
                "xyz": [
                    3.15581747,
                    4.500310853773315,
                    0.7503859202824292
                ],
                "label": "O",
                "properties": {}
            }
        ]
    },
    "spacegroup": {
        "source": "spglib",
        "symbol": "Pmn2_1",
        "number": 31,
        "point_group": "mm2",
        "crystal_system": "orthorhombic",
        "hall": "P 2ac -2"
    },
    "dielectric": {
        "epsilon_ionic": [
            [
                3.3199714,
                0.0,
                -1e-08
            ],
            [
                0.0,
                3.08716735,
                1e-08
            ],
            [
                -1e-08,
                1e-08,
                4.22341566
            ]
        ],
        "epsilon_ionic_avg": 3.5435181366666666,
        "epsilon_ionic_eig": [
            3.3199714,
            4.22341566,
            3.08716735
        ],
        "epsilon_electronic": [
            [
                3.23363756,
                0.0,
                0.0
            ],
            [
                0.0,
                3.11466382,
                0.0
            ],
            [
                0.0,
                0.0,
                3.32297604
            ]
        ],
        "epsilon_electronic_avg": 3.2237591400000003,
        "epsilon_electronic_eig": [
            3.23363756,
            3.11466382,
            3.32297604
        ]
    },
    "phonon": {
        "lowest_freq": -0.05374820807594153,
        "frequency": [
            -0.05374820807594153,
            -0.035418149371624935,
            -0.024298539654363308,
            3.9956239363321817,
            4.531736158079473,
            4.874632333153833,
            5.241184466021675,
            6.243115181824925,
            6.852434792359948,
            6.9766843697504175,
            7.380761486785373,
            8.523468223580847,
            8.58781004317318,
            9.275992623473652,
            9.354291955843408,
            9.914871716474654,
            10.162026013785514,
            10.274503202750052,
            10.526060658131051,
            10.690356281690606,
            10.87175276444102,
            11.324159273626721,
            11.338260733777146,
            11.784808735264118,
            11.891304026598881,
            11.981096043287328,
            12.196846909194916,
            12.46326669131509,
            12.529995968110839,
            12.613113957729174,
            13.0370866708538,
            13.225666590087977,
            13.318186253298954,
            13.383403090962114,
            13.473269478809184,
            13.508110884506463,
            13.736059703307305,
            13.935091841132095,
            13.971798709430052,
            14.821620387976653,
            23.52184603193636,
            23.55044340249229,
            23.70248773207977,
            23.83499114412542,
            23.993124972949637,
            24.47509409373609,
            24.89966682046025,
            25.06869561695847
        ]
    },
    "born_effective_charge": {
        "avg_abs_trace": 1.60983,
        "tensors": [
            [
                [
                    0.96732,
                    0.17647,
                    -0.17141
                ],
                [
                    -0.18919,
                    1.25786,
                    -0.03352
                ],
                [
                    0.23878,
                    0.15716,
                    1.11069
                ]
            ],
            [
                [
                    0.96732,
                    0.17647,
                    0.17141
                ],
                [
                    -0.18919,
                    1.25786,
                    0.03352
                ],
                [
                    -0.23878,
                    -0.15716,
                    1.11069
                ]
            ],
            [
                [
                    0.96732,
                    -0.17647,
                    -0.17141
                ],
                [
                    0.18919,
                    1.25786,
                    0.03352
                ],
                [
                    0.23878,
                    -0.15716,
                    1.11069
                ]
            ],
            [
                [
                    0.96732,
                    -0.17647,
                    0.17141
                ],
                [
                    0.18919,
                    1.25786,
                    -0.03352
                ],
                [
                    -0.23878,
                    0.15716,
                    1.11069
                ]
            ],
            [
                [
                    1.36125,
                    0.0,
                    0.0
                ],
                [
                    0.0,
                    0.83112,
                    0.06734
                ],
                [
                    -0.0,
                    -0.29533,
                    1.13082
                ]
            ],
            [
                [
                    1.36125,
                    -0.0,
                    0.0
                ],
                [
                    0.0,
                    0.83112,
                    -0.06734
                ],
                [
                    -0.0,
                    0.29533,
                    1.13082
                ]
            ],
            [
                [
                    3.20116,
                    -0.0,
                    -0.0
                ],
                [
                    0.0,
                    2.79095,
                    0.00951
                ],
                [
                    -0.0,
                    -0.06438,
                    3.33092
                ]
            ],
            [
                [
                    3.20116,
                    0.0,
                    -0.0
                ],
                [
                    0.0,
                    2.79095,
                    -0.00951
                ],
                [
                    -0.0,
                    0.06438,
                    3.33092
                ]
            ],
            [
                [
                    -2.2741,
                    -0.83193,
                    -0.50407
                ],
                [
                    -0.55048,
                    -1.44409,
                    -0.24729
                ],
                [
                    -0.50883,
                    -0.22813,
                    -1.2348
                ]
            ],
            [
                [
                    -0.95153,
                    0.0,
                    -0.0
                ],
                [
                    0.0,
                    -0.8152,
                    0.00332
                ],
                [
                    -0.0,
                    0.02725,
                    -2.98591
                ]
            ],
            [
                [
                    -2.2741,
                    0.83193,
                    0.50407
                ],
                [
                    0.55048,
                    -1.44409,
                    -0.24729
                ],
                [
                    0.50883,
                    -0.22813,
                    -1.2348
                ]
            ],
            [
                [
                    -2.2741,
                    -0.83193,
                    0.50407
                ],
                [
                    -0.55048,
                    -1.44409,
                    0.24729
                ],
                [
                    0.50883,
                    0.22813,
                    -1.2348
                ]
            ],
            [
                [
                    -2.2741,
                    0.83193,
                    -0.50407
                ],
                [
                    0.55048,
                    -1.44409,
                    0.24729
                ],
                [
                    -0.50883,
                    0.22813,
                    -1.2348
                ]
            ],
            [
                [
                    -0.99732,
                    0.0,
                    0.0
                ],
                [
                    0.0,
                    -2.43442,
                    -0.48188
                ],
                [
                    -0.0,
                    -0.51314,
                    -1.2276
                ]
            ],
            [
                [
                    -0.99732,
                    -0.0,
                    0.0
                ],
                [
                    0.0,
                    -2.43442,
                    0.48188
                ],
                [
                    -0.0,
                    0.51314,
                    -1.2276
                ]
            ],
            [
                [
                    -0.95153,
                    -0.0,
                    -0.0
                ],
                [
                    0.0,
                    -0.8152,
                    -0.00332
                ],
                [
                    -0.0,
                    -0.02725,
                    -2.98591
                ]
            ]
        ]
    },
    "band_gap": 4.1516,
    "is_direct": false,
    "formula": "Li3VO4"
}