{
    "mp_id": "mp-1186878",
    "nelements": 3,
    "nsites": 15,
    "elements": [
        "Mo",
        "O",
        "Ta"
    ],
    "structure": {
        "@module": "pymatgen.core.structure",
        "@class": "Structure",
        "charge": null,
        "lattice": {
            "matrix": [
                [
                    2.84026151,
                    1.63982585,
                    8.66241823
                ],
                [
                    -2.84026151,
                    1.63982585,
                    8.66241823
                ],
                [
                    0.0,
                    -3.2796507,
                    8.66241823
                ]
            ],
            "a": 9.262483676366292,
            "b": 9.262483676366292,
            "c": 9.262483376797329,
            "alpha": 35.71388731890897,
            "beta": 35.71388731890897,
            "gamma": 35.71389061720322,
            "volume": 242.0730080899789
        },
        "sites": [
            {
                "species": [
                    {
                        "element": "Ta",
                        "occu": 1
                    }
                ],
                "abc": [
                    0.37195826,
                    0.37195826,
                    0.37195826
                ],
                "xyz": [
                    0.0,
                    3.719582599703841e-07,
                    9.666174036669238
                ],
                "label": "Ta",
                "properties": {}
            },
            {
                "species": [
                    {
                        "element": "Ta",
                        "occu": 1
                    }
                ],
                "abc": [
                    0.62804174,
                    0.62804174,
                    0.62804174
                ],
                "xyz": [
                    0.0,
                    6.280417399473492e-07,
                    16.32108065333076
                ],
                "label": "Ta",
                "properties": {}
            },
            {
                "species": [
                    {
                        "element": "Mo",
                        "occu": 1
                    }
                ],
                "abc": [
                    0.11193674,
                    0.11193674,
                    0.11193674
                ],
                "xyz": [
                    0.0,
                    1.1193673998821652e-07,
                    2.908928571548311
                ],
                "label": "Mo",
                "properties": {}
            },
            {
                "species": [
                    {
                        "element": "Mo",
                        "occu": 1
                    }
                ],
                "abc": [
                    0.88806326,
                    0.88806326,
                    0.88806326
                ],
                "xyz": [
                    0.0,
                    8.880632602625838e-07,
                    23.078326118451688
                ],
                "label": "Mo",
                "properties": {}
            },
            {
                "species": [
                    {
                        "element": "O",
                        "occu": 1
                    }
                ],
                "abc": [
                    0.25680513,
                    0.73903159,
                    0.73903159
                ],
                "xyz": [
                    -1.3696492534415543,
                    -0.7907666756304008,
                    15.02815487519329
                ],
                "label": "O",
                "properties": {}
            },
            {
                "species": [
                    {
                        "element": "O",
                        "occu": 1
                    }
                ],
                "abc": [
                    0.73903159,
                    0.25680513,
                    0.73903159
                ],
                "xyz": [
                    1.3696492534415543,
                    -0.7907666756304008,
                    15.02815487519329
                ],
                "label": "O",
                "properties": {}
            },
            {
                "species": [
                    {
                        "element": "O",
                        "occu": 1
                    }
                ],
                "abc": [
                    0.73903159,
                    0.73903159,
                    0.25680513
                ],
                "xyz": [
                    0.0,
                    1.581535086129112,
                    15.028154875193291
                ],
                "label": "O",
                "properties": {}
            },
            {
                "species": [
                    {
                        "element": "O",
                        "occu": 1
                    }
                ],
                "abc": [
                    0.26096841,
                    0.74319487,
                    0.26096841
                ],
                "xyz": [
                    -1.3696492534415547,
                    0.790767675630401,
                    10.959099814806706
                ],
                "label": "O",
                "properties": {}
            },
            {
                "species": [
                    {
                        "element": "O",
                        "occu": 1
                    }
                ],
                "abc": [
                    0.74319487,
                    0.26096841,
                    0.26096841
                ],
                "xyz": [
                    1.3696492534415547,
                    0.790767675630401,
                    10.959099814806706
                ],
                "label": "O",
                "properties": {}
            },
            {
                "species": [
                    {
                        "element": "O",
                        "occu": 1
                    }
                ],
                "abc": [
                    0.26096841,
                    0.26096841,
                    0.74319487
                ],
                "xyz": [
                    0.0,
                    -1.5815340861291116,
                    10.959099814806708
                ],
                "label": "O",
                "properties": {}
            },
            {
                "species": [
                    {
                        "element": "O",
                        "occu": 1
                    }
                ],
                "abc": [
                    0.17805169,
                    0.17805169,
                    0.17805169
                ],
                "xyz": [
                    0.0,
                    1.7805169005846722e-07,
                    4.6270746160149265
                ],
                "label": "O",
                "properties": {}
            },
            {
                "species": [
                    {
                        "element": "O",
                        "occu": 1
                    }
                ],
                "abc": [
                    0.82194831,
                    0.82194831,
                    0.82194831
                ],
                "xyz": [
                    0.0,
                    8.219483098592661e-07,
                    21.360180073985077
                ],
                "label": "O",
                "properties": {}
            },
            {
                "species": [
                    {
                        "element": "O",
                        "occu": 1
                    }
                ],
                "abc": [
                    0.5,
                    0.5,
                    0.0
                ],
                "xyz": [
                    0.0,
                    1.63982585,
                    8.66241823
                ],
                "label": "O",
                "properties": {}
            },
            {
                "species": [
                    {
                        "element": "O",
                        "occu": 1
                    }
                ],
                "abc": [
                    0.0,
                    0.5,
                    0.5
                ],
                "xyz": [
                    -1.420130755,
                    -0.819912425,
                    8.66241823
                ],
                "label": "O",
                "properties": {}
            },
            {
                "species": [
                    {
                        "element": "O",
                        "occu": 1
                    }
                ],
                "abc": [
                    0.5,
                    0.0,
                    0.5
                ],
                "xyz": [
                    1.420130755,
                    -0.819912425,
                    8.66241823
                ],
                "label": "O",
                "properties": {}
            }
        ]
    },
    "spacegroup": {
        "source": "spglib",
        "symbol": "R-3m",
        "number": 166,
        "point_group": "-3m",
        "crystal_system": "trigonal",
        "hall": "-R 3 2\""
    },
    "dielectric": {
        "epsilon_ionic": [
            [
                17.50056989,
                -1e-08,
                -0.0
            ],
            [
                -1e-08,
                17.50055822,
                -3.54e-06
            ],
            [
                -0.0,
                -3.54e-06,
                3.62305134
            ]
        ],
        "epsilon_ionic_avg": 12.874726483333333,
        "epsilon_ionic_eig": [
            17.50056989000857,
            17.50055821999233,
            3.6230513399990967
        ],
        "epsilon_electronic": [
            [
                4.46157107,
                0.0,
                0.0
            ],
            [
                0.0,
                4.46157223,
                1.5e-07
            ],
            [
                -0.0,
                1.5e-07,
                3.83126853
            ]
        ],
        "epsilon_electronic_avg": 4.25147061,
        "epsilon_electronic_eig": [
            3.8312685299999645,
            4.461572230000035,
            4.46157107
        ]
    },
    "phonon": {
        "lowest_freq": -0.02002668254248456,
        "frequency": [
            -0.02002668254248456,
            -0.020026679918683465,
            -0.01085783963514651,
            0.7430793357246906,
            0.7430793949270125,
            1.6655139818118776,
            2.5562059140610414,
            2.5562062008925324,
            3.815930299417857,
            4.224565692984733,
            4.888241420899205,
            4.888242013370225,
            5.178179992339005,
            5.1781805115178114,
            5.446198886809677,
            5.446199380438606,
            5.721415242702605,
            5.779252152581082,
            7.2190446775454165,
            7.319694855667345,
            7.319695773875457,
            7.96213328618633,
            7.962133808006545,
            9.239408888565011,
            9.239409391151533,
            9.466815324320303,
            9.916544104938149,
            9.916544634820598,
            10.484809742011889,
            10.484810452964584,
            10.964157391507369,
            10.984698584020766,
            10.984699151373903,
            11.07285333495424,
            18.43504373129238,
            18.435043863866046,
            22.523031443555666,
            22.523032745690106,
            22.746499375844817,
            22.746500665186723,
            24.668239209261223,
            28.62838742489091,
            29.315329808374447,
            29.660497189498447,
            30.150024503151066
        ]
    },
    "born_effective_charge": {
        "avg_abs_trace": 3.516604666666667,
        "tensors": [
            [
                [
                    9.31976,
                    0.0002,
                    0.00033
                ],
                [
                    0.0,
                    9.31979,
                    2e-05
                ],
                [
                    -0.0,
                    0.0,
                    6.97571
                ]
            ],
            [
                [
                    9.31976,
                    -0.0002,
                    -0.00033
                ],
                [
                    0.0,
                    9.31972,
                    -3e-05
                ],
                [
                    -0.0,
                    0.0,
                    6.97571
                ]
            ],
            [
                [
                    4.88114,
                    0.0005,
                    0.00034
                ],
                [
                    0.0,
                    4.88113,
                    -1e-05
                ],
                [
                    -0.0,
                    0.0,
                    4.18424
                ]
            ],
            [
                [
                    4.88114,
                    -0.0005,
                    -0.00034
                ],
                [
                    0.0,
                    4.88111,
                    1e-05
                ],
                [
                    -0.0,
                    0.0,
                    4.18439
                ]
            ],
            [
                [
                    -3.80124,
                    -1.69946,
                    -1.97207
                ],
                [
                    -1.69982,
                    -1.83832,
                    -1.13868
                ],
                [
                    -1.45299,
                    -0.83888,
                    -1.7199
                ]
            ],
            [
                [
                    -3.80096,
                    1.70015,
                    1.97243
                ],
                [
                    1.69982,
                    -1.83832,
                    -1.13868
                ],
                [
                    1.45299,
                    -0.83888,
                    -1.7199
                ]
            ],
            [
                [
                    -0.85694,
                    0.0001,
                    0.00019
                ],
                [
                    0.0,
                    -4.7825,
                    2.27735
                ],
                [
                    -0.0,
                    1.67777,
                    -1.7199
                ]
            ],
            [
                [
                    -3.80124,
                    1.69946,
                    1.97207
                ],
                [
                    1.6998,
                    -1.83832,
                    -1.13867
                ],
                [
                    1.45301,
                    -0.83889,
                    -1.71994
                ]
            ],
            [
                [
                    -3.80096,
                    -1.70015,
                    -1.97243
                ],
                [
                    -1.6998,
                    -1.83832,
                    -1.13867
                ],
                [
                    -1.45301,
                    -0.83889,
                    -1.71994
                ]
            ],
            [
                [
                    -0.85694,
                    -0.0001,
                    -0.00019
                ],
                [
                    0.0,
                    -4.78244,
                    2.27737
                ],
                [
                    -0.0,
                    1.67779,
                    -1.71994
                ]
            ],
            [
                [
                    -0.50106,
                    -8e-05,
                    -0.00011
                ],
                [
                    0.0,
                    -0.50106,
                    -7e-05
                ],
                [
                    -0.0,
                    -0.0,
                    -2.5392
                ]
            ],
            [
                [
                    -0.50106,
                    8e-05,
                    0.00011
                ],
                [
                    0.0,
                    -0.50105,
                    6e-05
                ],
                [
                    -0.0,
                    -0.0,
                    -2.53796
                ]
            ],
            [
                [
                    -1.32658,
                    0.0,
                    -0.0
                ],
                [
                    0.0,
                    -5.66104,
                    2.51725
                ],
                [
                    -0.0,
                    2.05825,
                    -2.30778
                ]
            ],
            [
                [
                    -4.57743,
                    -1.87688,
                    -2.18
                ],
                [
                    -1.87687,
                    -2.41019,
                    -1.25862
                ],
                [
                    -1.78249,
                    -1.02912,
                    -2.30778
                ]
            ],
            [
                [
                    -4.57743,
                    1.87688,
                    2.18
                ],
                [
                    1.87687,
                    -2.41019,
                    -1.25862
                ],
                [
                    1.78249,
                    -1.02912,
                    -2.30778
                ]
            ]
        ]
    },
    "band_gap": 2.7286,
    "is_direct": false,
    "formula": "Ta2Mo2O11"
}