{
    "mp_id": "mp-1191189",
    "nelements": 3,
    "nsites": 22,
    "elements": [
        "Cd",
        "O",
        "Sb"
    ],
    "structure": {
        "@module": "pymatgen.core.structure",
        "@class": "Structure",
        "charge": null,
        "lattice": {
            "matrix": [
                [
                    0.0,
                    5.16271806,
                    5.16271806
                ],
                [
                    5.16271806,
                    0.0,
                    5.16271806
                ],
                [
                    5.16271806,
                    5.16271806,
                    0.0
                ]
            ],
            "a": 7.301185899160514,
            "b": 7.301185899160514,
            "c": 7.301185899160514,
            "alpha": 59.99999999999999,
            "beta": 59.99999999999999,
            "gamma": 59.99999999999999,
            "volume": 275.21064063801833
        },
        "sites": [
            {
                "species": [
                    {
                        "element": "Cd",
                        "occu": 1
                    }
                ],
                "abc": [
                    0.125,
                    0.625,
                    0.625
                ],
                "xyz": [
                    6.453397575,
                    3.872038545,
                    3.872038545
                ],
                "label": "Cd",
                "properties": {}
            },
            {
                "species": [
                    {
                        "element": "Cd",
                        "occu": 1
                    }
                ],
                "abc": [
                    0.625,
                    0.125,
                    0.625
                ],
                "xyz": [
                    3.872038545,
                    6.453397575,
                    3.872038545
                ],
                "label": "Cd",
                "properties": {}
            },
            {
                "species": [
                    {
                        "element": "Cd",
                        "occu": 1
                    }
                ],
                "abc": [
                    0.625,
                    0.625,
                    0.125
                ],
                "xyz": [
                    3.872038545,
                    3.872038545,
                    6.453397575
                ],
                "label": "Cd",
                "properties": {}
            },
            {
                "species": [
                    {
                        "element": "Cd",
                        "occu": 1
                    }
                ],
                "abc": [
                    0.625,
                    0.625,
                    0.625
                ],
                "xyz": [
                    6.453397575,
                    6.453397575,
                    6.453397575
                ],
                "label": "Cd",
                "properties": {}
            },
            {
                "species": [
                    {
                        "element": "Sb",
                        "occu": 1
                    }
                ],
                "abc": [
                    0.625,
                    0.125,
                    0.125
                ],
                "xyz": [
                    1.290679515,
                    3.872038545,
                    3.872038545
                ],
                "label": "Sb",
                "properties": {}
            },
            {
                "species": [
                    {
                        "element": "Sb",
                        "occu": 1
                    }
                ],
                "abc": [
                    0.125,
                    0.625,
                    0.125
                ],
                "xyz": [
                    3.872038545,
                    1.290679515,
                    3.872038545
                ],
                "label": "Sb",
                "properties": {}
            },
            {
                "species": [
                    {
                        "element": "Sb",
                        "occu": 1
                    }
                ],
                "abc": [
                    0.125,
                    0.125,
                    0.625
                ],
                "xyz": [
                    3.872038545,
                    3.872038545,
                    1.290679515
                ],
                "label": "Sb",
                "properties": {}
            },
            {
                "species": [
                    {
                        "element": "Sb",
                        "occu": 1
                    }
                ],
                "abc": [
                    0.125,
                    0.125,
                    0.125
                ],
                "xyz": [
                    1.290679515,
                    1.290679515,
                    1.290679515
                ],
                "label": "Sb",
                "properties": {}
            },
            {
                "species": [
                    {
                        "element": "O",
                        "occu": 1
                    }
                ],
                "abc": [
                    0.19981117,
                    0.19981117,
                    0.80018883
                ],
                "xyz": [
                    5.16271806,
                    5.16271806,
                    2.063137471897461
                ],
                "label": "O",
                "properties": {}
            },
            {
                "species": [
                    {
                        "element": "O",
                        "occu": 1
                    }
                ],
                "abc": [
                    0.80018883,
                    0.80018883,
                    0.19981117
                ],
                "xyz": [
                    5.16271806,
                    5.16271806,
                    8.26229864810254
                ],
                "label": "O",
                "properties": {}
            },
            {
                "species": [
                    {
                        "element": "O",
                        "occu": 1
                    }
                ],
                "abc": [
                    0.19981117,
                    0.80018883,
                    0.19981117
                ],
                "xyz": [
                    5.16271806,
                    2.063137471897461,
                    5.16271806
                ],
                "label": "O",
                "properties": {}
            },
            {
                "species": [
                    {
                        "element": "O",
                        "occu": 1
                    }
                ],
                "abc": [
                    0.80018883,
                    0.19981117,
                    0.80018883
                ],
                "xyz": [
                    5.16271806,
                    8.26229864810254,
                    5.16271806
                ],
                "label": "O",
                "properties": {}
            },
            {
                "species": [
                    {
                        "element": "O",
                        "occu": 1
                    }
                ],
                "abc": [
                    0.80018883,
                    0.19981117,
                    0.19981117
                ],
                "xyz": [
                    2.063137471897461,
                    5.16271806,
                    5.16271806
                ],
                "label": "O",
                "properties": {}
            },
            {
                "species": [
                    {
                        "element": "O",
                        "occu": 1
                    }
                ],
                "abc": [
                    0.19981117,
                    0.80018883,
                    0.80018883
                ],
                "xyz": [
                    8.26229864810254,
                    5.16271806,
                    5.16271806
                ],
                "label": "O",
                "properties": {}
            },
            {
                "species": [
                    {
                        "element": "O",
                        "occu": 1
                    }
                ],
                "abc": [
                    0.05018883,
                    0.05018883,
                    0.44981117
                ],
                "xyz": [
                    2.58135903,
                    2.58135903,
                    0.5182215581025396
                ],
                "label": "O",
                "properties": {}
            },
            {
                "species": [
                    {
                        "element": "O",
                        "occu": 1
                    }
                ],
                "abc": [
                    0.44981117,
                    0.44981117,
                    0.05018883
                ],
                "xyz": [
                    2.58135903,
                    2.58135903,
                    4.644496501897461
                ],
                "label": "O",
                "properties": {}
            },
            {
                "species": [
                    {
                        "element": "O",
                        "occu": 1
                    }
                ],
                "abc": [
                    0.05018883,
                    0.44981117,
                    0.05018883
                ],
                "xyz": [
                    2.58135903,
                    0.5182215581025396,
                    2.58135903
                ],
                "label": "O",
                "properties": {}
            },
            {
                "species": [
                    {
                        "element": "O",
                        "occu": 1
                    }
                ],
                "abc": [
                    0.44981117,
                    0.05018883,
                    0.44981117
                ],
                "xyz": [
                    2.58135903,
                    4.644496501897461,
                    2.58135903
                ],
                "label": "O",
                "properties": {}
            },
            {
                "species": [
                    {
                        "element": "O",
                        "occu": 1
                    }
                ],
                "abc": [
                    0.44981117,
                    0.05018883,
                    0.05018883
                ],
                "xyz": [
                    0.5182215581025396,
                    2.58135903,
                    2.58135903
                ],
                "label": "O",
                "properties": {}
            },
            {
                "species": [
                    {
                        "element": "O",
                        "occu": 1
                    }
                ],
                "abc": [
                    0.05018883,
                    0.44981117,
                    0.44981117
                ],
                "xyz": [
                    4.644496501897461,
                    2.58135903,
                    2.58135903
                ],
                "label": "O",
                "properties": {}
            },
            {
                "species": [
                    {
                        "element": "O",
                        "occu": 1
                    }
                ],
                "abc": [
                    0.75,
                    0.75,
                    0.75
                ],
                "xyz": [
                    7.744077090000001,
                    7.744077090000001,
                    7.744077090000001
                ],
                "label": "O",
                "properties": {}
            },
            {
                "species": [
                    {
                        "element": "O",
                        "occu": 1
                    }
                ],
                "abc": [
                    0.5,
                    0.5,
                    0.5
                ],
                "xyz": [
                    5.16271806,
                    5.16271806,
                    5.16271806
                ],
                "label": "O",
                "properties": {}
            }
        ]
    },
    "spacegroup": {
        "source": "spglib",
        "symbol": "Fd-3m",
        "number": 227,
        "point_group": "m-3m",
        "crystal_system": "cubic",
        "hall": "F 4d 2 3 -1d"
    },
    "dielectric": {
        "epsilon_ionic": [
            [
                9.30599848,
                -0.0,
                -0.0
            ],
            [
                -0.0,
                9.3057792,
                -0.0
            ],
            [
                -0.0,
                -0.0,
                9.30516461
            ]
        ],
        "epsilon_ionic_avg": 9.30564743,
        "epsilon_ionic_eig": [
            9.30599848,
            9.3057792,
            9.30516461
        ],
        "epsilon_electronic": [
            [
                4.8302475,
                0.0,
                0.0
            ],
            [
                -0.0,
                4.8302475,
                -0.0
            ],
            [
                0.0,
                -0.0,
                4.8302475
            ]
        ],
        "epsilon_electronic_avg": 4.8302475,
        "epsilon_electronic_eig": [
            4.8302475,
            4.8302475,
            4.8302475
        ]
    },
    "phonon": {
        "lowest_freq": -0.07117255586789564,
        "frequency": [
            -0.07117255586789564,
            -0.07117255586789564,
            -0.07117255586789564,
            2.2377525957491513,
            2.2377525957491513,
            2.2377525957491513,
            2.6351546020894294,
            2.6351546020894294,
            2.6351546020894294,
            2.747974150601351,
            2.747974150601351,
            3.3636026583576872,
            3.3636026583576872,
            3.3636026583576872,
            4.45877069514129,
            4.45877069514129,
            4.45877069514129,
            5.582392663005977,
            5.582392663005977,
            5.9969539646484185,
            5.9969539646484185,
            5.9969539646484185,
            6.031975252787801,
            6.56246739882242,
            6.56246739882242,
            6.56246739882242,
            7.772041585597492,
            7.772041585597492,
            7.772041585597492,
            8.315594869069733,
            8.315594869069733,
            8.315594869069733,
            9.60932826534084,
            9.60932826534084,
            9.60932826534084,
            9.873508307344588,
            10.13445723716681,
            10.13445723716681,
            10.13445723716681,
            10.438781057609166,
            10.438781057609166,
            11.230901386218658,
            11.230901386218658,
            11.230901386218658,
            13.207293567775919,
            13.207293567775919,
            13.207293567775919,
            13.520516317642105,
            13.520516317642105,
            13.520516317642105,
            13.686032228280144,
            13.686032228280144,
            13.772864648346154,
            14.58760664622149,
            18.487561031822906,
            18.487561031822906,
            18.487561031822906,
            20.799845698068452,
            20.799845698068452,
            20.799845698068452,
            22.61671210546176,
            22.61671210546176,
            22.61671210546176,
            24.32728298586271,
            24.32728298586271,
            24.32728298586271
        ]
    },
    "born_effective_charge": {
        "avg_abs_trace": 2.7009724242424245,
        "tensors": [
            [
                [
                    2.43744,
                    -0.05762,
                    -0.05762
                ],
                [
                    -0.05762,
                    2.43743,
                    0.05762
                ],
                [
                    -0.05724,
                    0.05724,
                    2.43738
                ]
            ],
            [
                [
                    2.43744,
                    -0.05762,
                    0.05762
                ],
                [
                    -0.05762,
                    2.43743,
                    -0.05762
                ],
                [
                    0.05724,
                    -0.05724,
                    2.43738
                ]
            ],
            [
                [
                    2.43744,
                    0.05762,
                    -0.05762
                ],
                [
                    0.05762,
                    2.43743,
                    -0.05762
                ],
                [
                    -0.05724,
                    -0.05724,
                    2.43738
                ]
            ],
            [
                [
                    2.43744,
                    0.05762,
                    0.05762
                ],
                [
                    0.05762,
                    2.43743,
                    0.05762
                ],
                [
                    0.05724,
                    0.05724,
                    2.43738
                ]
            ],
            [
                [
                    4.9904,
                    -0.10282,
                    -0.10282
                ],
                [
                    -0.10285,
                    4.99035,
                    0.10285
                ],
                [
                    -0.10315,
                    0.10315,
                    4.99002
                ]
            ],
            [
                [
                    4.9904,
                    -0.10282,
                    0.10282
                ],
                [
                    -0.10285,
                    4.99035,
                    -0.10285
                ],
                [
                    0.10315,
                    -0.10315,
                    4.99002
                ]
            ],
            [
                [
                    4.9904,
                    0.10282,
                    -0.10282
                ],
                [
                    0.10285,
                    4.99035,
                    -0.10285
                ],
                [
                    -0.10315,
                    -0.10315,
                    4.99002
                ]
            ],
            [
                [
                    4.9904,
                    0.10282,
                    0.10282
                ],
                [
                    0.10285,
                    4.99035,
                    0.10285
                ],
                [
                    0.10315,
                    0.10315,
                    4.99002
                ]
            ],
            [
                [
                    -2.28272,
                    -0.78616,
                    -5e-05
                ],
                [
                    -0.78617,
                    -2.28271,
                    -0.0
                ],
                [
                    0.0,
                    0.0,
                    -1.93464
                ]
            ],
            [
                [
                    -2.28272,
                    0.78616,
                    5e-05
                ],
                [
                    0.78617,
                    -2.28271,
                    0.0
                ],
                [
                    0.0,
                    -0.0,
                    -1.93478
                ]
            ],
            [
                [
                    -2.28272,
                    -5e-05,
                    -0.78616
                ],
                [
                    0.0,
                    -1.93489,
                    0.0
                ],
                [
                    -0.78627,
                    -1e-05,
                    -2.28261
                ]
            ],
            [
                [
                    -2.28272,
                    5e-05,
                    0.78616
                ],
                [
                    -0.0,
                    -1.93503,
                    -0.0
                ],
                [
                    0.78627,
                    1e-05,
                    -2.28261
                ]
            ],
            [
                [
                    -1.93505,
                    -0.0,
                    -0.0
                ],
                [
                    -0.0,
                    -2.28271,
                    -0.78617
                ],
                [
                    -1e-05,
                    -0.78627,
                    -2.28261
                ]
            ],
            [
                [
                    -1.93496,
                    -0.0,
                    -0.0
                ],
                [
                    0.0,
                    -2.28271,
                    0.78617
                ],
                [
                    1e-05,
                    0.78627,
                    -2.28261
                ]
            ],
            [
                [
                    -2.28272,
                    -0.78616,
                    5e-05
                ],
                [
                    -0.78617,
                    -2.28271,
                    0.0
                ],
                [
                    0.0,
                    0.0,
                    -1.93478
                ]
            ],
            [
                [
                    -2.28272,
                    0.78616,
                    -5e-05
                ],
                [
                    0.78617,
                    -2.28271,
                    -0.0
                ],
                [
                    -0.0,
                    -0.0,
                    -1.93464
                ]
            ],
            [
                [
                    -2.28272,
                    5e-05,
                    -0.78616
                ],
                [
                    0.0,
                    -1.93503,
                    0.0
                ],
                [
                    -0.78627,
                    1e-05,
                    -2.28261
                ]
            ],
            [
                [
                    -2.28272,
                    -5e-05,
                    0.78616
                ],
                [
                    -0.0,
                    -1.93489,
                    -0.0
                ],
                [
                    0.78627,
                    -1e-05,
                    -2.28261
                ]
            ],
            [
                [
                    -1.93496,
                    0.0,
                    0.0
                ],
                [
                    0.0,
                    -2.28271,
                    -0.78617
                ],
                [
                    1e-05,
                    -0.78627,
                    -2.28261
                ]
            ],
            [
                [
                    -1.93505,
                    0.0,
                    0.0
                ],
                [
                    -0.0,
                    -2.28271,
                    0.78617
                ],
                [
                    -1e-05,
                    0.78627,
                    -2.28261
                ]
            ],
            [
                [
                    -1.85478,
                    0.0,
                    0.0
                ],
                [
                    -0.0,
                    -1.8548,
                    -0.0
                ],
                [
                    0.0,
                    0.0,
                    -1.85496
                ]
            ],
            [
                [
                    -1.85478,
                    -0.0,
                    -0.0
                ],
                [
                    -0.0,
                    -1.8548,
                    -0.0
                ],
                [
                    0.0,
                    -0.0,
                    -1.85496
                ]
            ]
        ]
    },
    "band_gap": 0.5401999999999996,
    "is_direct": false,
    "formula": "Cd2Sb2O7"
}