{
    "mp_id": "mp-1217380",
    "nelements": 4,
    "nsites": 12,
    "elements": [
        "O",
        "Pb",
        "Th",
        "V"
    ],
    "structure": {
        "@module": "pymatgen.core.structure",
        "@class": "Structure",
        "charge": null,
        "lattice": {
            "matrix": [
                [
                    -3.76632286,
                    3.76632286,
                    3.29080643
                ],
                [
                    3.76632286,
                    -3.76632286,
                    3.29080643
                ],
                [
                    3.76632286,
                    3.76632286,
                    -3.29080643
                ]
            ],
            "a": 6.260972985986004,
            "b": 6.260972985986004,
            "c": 6.260972985986004,
            "alpha": 106.03723004614714,
            "beta": 106.03723004614714,
            "gamma": 116.58187285288635,
            "volume": 186.72283002084976
        },
        "sites": [
            {
                "species": [
                    {
                        "element": "Th",
                        "occu": 1
                    }
                ],
                "abc": [
                    0.75,
                    0.25,
                    0.5
                ],
                "xyz": [
                    -2.220446049250313e-16,
                    3.76632286,
                    1.645403215
                ],
                "label": "Th",
                "properties": {}
            },
            {
                "species": [
                    {
                        "element": "V",
                        "occu": 1
                    }
                ],
                "abc": [
                    0.25,
                    0.75,
                    0.5
                ],
                "xyz": [
                    3.76632286,
                    -2.220446049250313e-16,
                    1.645403215
                ],
                "label": "V",
                "properties": {}
            },
            {
                "species": [
                    {
                        "element": "V",
                        "occu": 1
                    }
                ],
                "abc": [
                    0.5,
                    0.5,
                    0.0
                ],
                "xyz": [
                    0.0,
                    0.0,
                    3.29080643
                ],
                "label": "V",
                "properties": {}
            },
            {
                "species": [
                    {
                        "element": "Pb",
                        "occu": 1
                    }
                ],
                "abc": [
                    0.0,
                    0.0,
                    0.0
                ],
                "xyz": [
                    0.0,
                    0.0,
                    0.0
                ],
                "label": "Pb",
                "properties": {}
            },
            {
                "species": [
                    {
                        "element": "O",
                        "occu": 1
                    }
                ],
                "abc": [
                    0.5954818,
                    0.92118338,
                    0.67429842
                ],
                "xyz": [
                    3.76632286,
                    1.312928247415762,
                    2.772065950226267
                ],
                "label": "O",
                "properties": {}
            },
            {
                "species": [
                    {
                        "element": "O",
                        "occu": 1
                    }
                ],
                "abc": [
                    0.66221797,
                    0.48147354,
                    0.81925557
                ],
                "xyz": [
                    2.4048391029466605,
                    3.7663228600000003,
                    1.0676558774750946
                ],
                "label": "O",
                "properties": {}
            },
            {
                "species": [
                    {
                        "element": "O",
                        "occu": 1
                    }
                ],
                "abc": [
                    0.66221797,
                    0.84296341,
                    0.18074443
                ],
                "xyz": [
                    1.3614875610394281,
                    -3.803986088457556e-06,
                    4.358465631189588
                ],
                "label": "O",
                "properties": {}
            },
            {
                "species": [
                    {
                        "element": "O",
                        "occu": 1
                    }
                ],
                "abc": [
                    0.24688496,
                    0.92118338,
                    0.32570158
                ],
                "xyz": [
                    3.76632286,
                    -1.3129282474157626,
                    2.772065950226267
                ],
                "label": "O",
                "properties": {}
            },
            {
                "species": [
                    {
                        "element": "O",
                        "occu": 1
                    }
                ],
                "abc": [
                    0.15703659,
                    0.33778203,
                    0.81925557
                ],
                "xyz": [
                    3.7663266639860886,
                    2.404835298960572,
                    -1.0676592011895885
                ],
                "label": "O",
                "properties": {}
            },
            {
                "species": [
                    {
                        "element": "O",
                        "occu": 1
                    }
                ],
                "abc": [
                    0.07881662,
                    0.75311504,
                    0.67429842
                ],
                "xyz": [
                    5.079251107415762,
                    0.0,
                    0.5187404797737334
                ],
                "label": "O",
                "properties": {}
            },
            {
                "species": [
                    {
                        "element": "O",
                        "occu": 1
                    }
                ],
                "abc": [
                    0.07881662,
                    0.4045182,
                    0.32570158
                ],
                "xyz": [
                    2.453394612584237,
                    2.220446049250313e-16,
                    0.5187404797737332
                ],
                "label": "O",
                "properties": {}
            },
            {
                "species": [
                    {
                        "element": "O",
                        "occu": 1
                    }
                ],
                "abc": [
                    0.51852646,
                    0.33778203,
                    0.18074443
                ],
                "xyz": [
                    -1.1102230246251565e-16,
                    1.3614837570533398,
                    2.223150552524906
                ],
                "label": "O",
                "properties": {}
            }
        ]
    },
    "spacegroup": {
        "source": "spglib",
        "symbol": "I-4m2",
        "number": 119,
        "point_group": "-42m",
        "crystal_system": "tetragonal",
        "hall": "I -4 -2"
    },
    "dielectric": {
        "epsilon_ionic": [
            [
                8.94429656,
                -1e-08,
                -7.459e-05
            ],
            [
                -1e-08,
                8.94430757,
                -2.003e-05
            ],
            [
                -7.459e-05,
                -2.003e-05,
                13.88555173
            ]
        ],
        "epsilon_ionic_avg": 10.591385286666664,
        "epsilon_ionic_eig": [
            13.885551731207153,
            8.944296558864401,
            8.944307569928442
        ],
        "epsilon_electronic": [
            [
                4.41882318,
                0.0,
                0.0
            ],
            [
                0.0,
                4.41882318,
                0.0
            ],
            [
                0.0,
                0.0,
                5.61155991
            ]
        ],
        "epsilon_electronic_avg": 4.81640209,
        "epsilon_electronic_eig": [
            4.41882318,
            4.41882318,
            5.61155991
        ]
    },
    "phonon": {
        "lowest_freq": -0.0303295430980907,
        "frequency": [
            -0.0303295430980907,
            -0.0303295430980907,
            -0.016027682154249514,
            2.2285320693939354,
            2.4790018360302186,
            2.5228257220174912,
            2.5228257220174912,
            3.3916421090211792,
            3.3916421090211792,
            4.404012869345744,
            4.469606702947788,
            4.469606702947788,
            4.897416733629707,
            6.834089806648022,
            6.834089806648022,
            7.265766274242021,
            7.30262405765597,
            7.466500959629792,
            7.466500959629792,
            8.297734226482476,
            8.297734226482476,
            9.113816703061163,
            10.136045352526473,
            10.233465249521208,
            10.233465249521208,
            11.716950450572835,
            13.408681348266917,
            13.442203076347736,
            22.439232619617734,
            22.439232619617734,
            23.035741263178604,
            23.097832946760732,
            23.097832946760732,
            24.053745342083527,
            24.076568347015286,
            25.396986637407345
        ]
    },
    "born_effective_charge": {
        "avg_abs_trace": 2.978458888888889,
        "tensors": [
            [
                [
                    5.83524,
                    0.0,
                    -0.00018
                ],
                [
                    -0.0,
                    5.83526,
                    -5e-05
                ],
                [
                    -0.0,
                    -0.0,
                    7.34927
                ]
            ],
            [
                [
                    2.9637,
                    0.0,
                    2e-05
                ],
                [
                    -0.0,
                    2.96412,
                    -9e-05
                ],
                [
                    -0.0,
                    -0.0,
                    5.4709
                ]
            ],
            [
                [
                    3.63057,
                    0.0,
                    7e-05
                ],
                [
                    -0.0,
                    3.63051,
                    2e-05
                ],
                [
                    -0.0,
                    -0.0,
                    4.27023
                ]
            ],
            [
                [
                    3.62904,
                    0.0,
                    -1e-05
                ],
                [
                    -0.0,
                    3.62912,
                    6e-05
                ],
                [
                    -0.0,
                    -0.0,
                    4.4043
                ]
            ],
            [
                [
                    -0.63981,
                    0.00026,
                    -3e-05
                ],
                [
                    -0.0,
                    -2.95974,
                    -1.15086
                ],
                [
                    -0.0,
                    -1.21953,
                    -2.90962
                ]
            ],
            [
                [
                    -3.7763,
                    0.0,
                    1.26565
                ],
                [
                    -0.0,
                    -0.65365,
                    9e-05
                ],
                [
                    1.7302,
                    0.0,
                    -2.46333
                ]
            ],
            [
                [
                    -3.77616,
                    -0.0,
                    -1.26581
                ],
                [
                    0.0,
                    -0.65365,
                    9e-05
                ],
                [
                    -1.7302,
                    -0.0,
                    -2.46333
                ]
            ],
            [
                [
                    -0.63981,
                    -0.00026,
                    -3e-05
                ],
                [
                    -0.0,
                    -2.95921,
                    1.15069
                ],
                [
                    -0.0,
                    1.21953,
                    -2.90962
                ]
            ],
            [
                [
                    -0.65373,
                    -3e-05,
                    3e-05
                ],
                [
                    0.0,
                    -3.7764,
                    -1.2659
                ],
                [
                    -0.0,
                    -1.73133,
                    -2.46414
                ]
            ],
            [
                [
                    -2.95964,
                    0.0,
                    1.15108
                ],
                [
                    -1e-05,
                    -0.64006,
                    9e-05
                ],
                [
                    1.22005,
                    -0.0,
                    -2.91026
                ]
            ],
            [
                [
                    -2.95938,
                    -0.0,
                    -1.15083
                ],
                [
                    1e-05,
                    -0.64006,
                    9e-05
                ],
                [
                    -1.22005,
                    -0.0,
                    -2.91026
                ]
            ],
            [
                [
                    -0.65373,
                    3e-05,
                    3e-05
                ],
                [
                    0.0,
                    -3.77623,
                    1.26577
                ],
                [
                    -0.0,
                    1.73133,
                    -2.46414
                ]
            ]
        ]
    },
    "band_gap": 2.4842,
    "is_direct": false,
    "formula": "ThV2PbO8"
}