{
    "mp_id": "mp-19117",
    "nelements": 3,
    "nsites": 20,
    "elements": [
        "Li",
        "Mo",
        "O"
    ],
    "structure": {
        "@module": "pymatgen.core.structure",
        "@class": "Structure",
        "charge": null,
        "lattice": {
            "matrix": [
                [
                    5.05802143,
                    -0.0002915,
                    -0.00042847
                ],
                [
                    -0.98628546,
                    4.99481916,
                    0.00063899
                ],
                [
                    -1.57765131,
                    -2.82530246,
                    6.98790344
                ]
            ],
            "a": 5.05802145654781,
            "b": 5.091264858364641,
            "c": 7.700786461991438,
            "alpha": 108.67100335941136,
            "beta": 101.82508404671553,
            "gamma": 101.17332646017844,
            "volume": 176.544262511574
        },
        "sites": [
            {
                "species": [
                    {
                        "element": "Li",
                        "occu": 1
                    }
                ],
                "abc": [
                    0.42285221,
                    0.80545196,
                    0.29841516
                ],
                "xyz": [
                    0.873594914928499,
                    3.179850535199045,
                    2.085629819373652
                ],
                "label": "Li",
                "properties": {}
            },
            {
                "species": [
                    {
                        "element": "Li",
                        "occu": 1
                    }
                ],
                "abc": [
                    0.57714779,
                    0.19454804,
                    0.70158484
                ],
                "xyz": [
                    1.6204897450715012,
                    -1.010625335199045,
                    4.902484140626347
                ],
                "label": "Li",
                "properties": {}
            },
            {
                "species": [
                    {
                        "element": "Li",
                        "occu": 1
                    }
                ],
                "abc": [
                    0.0,
                    0.0,
                    0.5
                ],
                "xyz": [
                    -0.788825655,
                    -1.41265123,
                    3.49395172
                ],
                "label": "Li",
                "properties": {}
            },
            {
                "species": [
                    {
                        "element": "Li",
                        "occu": 1
                    }
                ],
                "abc": [
                    0.5,
                    0.0,
                    0.0
                ],
                "xyz": [
                    2.529010715,
                    -0.00014575,
                    -0.000214235
                ],
                "label": "Li",
                "properties": {}
            },
            {
                "species": [
                    {
                        "element": "Li",
                        "occu": 1
                    }
                ],
                "abc": [
                    0.21717612,
                    0.40358981,
                    0.9036062
                ],
                "xyz": [
                    -0.725148797517033,
                    -0.5371660108014726,
                    6.314477709785884
                ],
                "label": "Li",
                "properties": {}
            },
            {
                "species": [
                    {
                        "element": "Li",
                        "occu": 1
                    }
                ],
                "abc": [
                    0.78282388,
                    0.59641019,
                    0.0963938
                ],
                "xyz": [
                    3.2192334575170336,
                    2.706391210801472,
                    0.6736362502141164
                ],
                "label": "Li",
                "properties": {}
            },
            {
                "species": [
                    {
                        "element": "Li",
                        "occu": 1
                    }
                ],
                "abc": [
                    0.30665152,
                    0.61319167,
                    0.61049778
                ],
                "xyz": [
                    -0.016884690981136208,
                    1.337851233491778,
                    4.266359969342802
                ],
                "label": "Li",
                "properties": {}
            },
            {
                "species": [
                    {
                        "element": "Li",
                        "occu": 1
                    }
                ],
                "abc": [
                    0.69334848,
                    0.38680833,
                    0.38950222
                ],
                "xyz": [
                    2.510969350981137,
                    0.8313739665082214,
                    2.721753990657198
                ],
                "label": "Li",
                "properties": {}
            },
            {
                "species": [
                    {
                        "element": "Mo",
                        "occu": 1
                    }
                ],
                "abc": [
                    0.89255097,
                    0.77904878,
                    0.78217164
                ],
                "xyz": [
                    2.512183336791701,
                    1.6810761356766348,
                    5.465855266892258
                ],
                "label": "Mo",
                "properties": {}
            },
            {
                "species": [
                    {
                        "element": "Mo",
                        "occu": 1
                    }
                ],
                "abc": [
                    0.10744903,
                    0.22095122,
                    0.21782836
                ],
                "xyz": [
                    -0.018098676791699908,
                    0.4881490643233646,
                    1.5222586931077422
                ],
                "label": "Mo",
                "properties": {}
            },
            {
                "species": [
                    {
                        "element": "O",
                        "occu": 1
                    }
                ],
                "abc": [
                    0.57245779,
                    0.60897511,
                    0.84558622
                ],
                "xyz": [
                    0.9608402653945904,
                    0.6525168484372212,
                    5.909018703570855
                ],
                "label": "O",
                "properties": {}
            },
            {
                "species": [
                    {
                        "element": "O",
                        "occu": 1
                    }
                ],
                "abc": [
                    0.42754221,
                    0.39102489,
                    0.15441378
                ],
                "xyz": [
                    1.533244394605409,
                    1.5167083515627786,
                    1.0790952564291456
                ],
                "label": "O",
                "properties": {}
            },
            {
                "species": [
                    {
                        "element": "O",
                        "occu": 1
                    }
                ],
                "abc": [
                    0.66509997,
                    0.81057363,
                    0.57011376
                ],
                "xyz": [
                    1.6651921955109115,
                    2.4377310124656466,
                    3.9841328777550227
                ],
                "label": "O",
                "properties": {}
            },
            {
                "species": [
                    {
                        "element": "O",
                        "occu": 1
                    }
                ],
                "abc": [
                    0.94988883,
                    0.42670834,
                    0.66259508
                ],
                "xyz": [
                    3.3383578308933357,
                    0.25902259026195273,
                    4.630016102354262
                ],
                "label": "O",
                "properties": {}
            },
            {
                "species": [
                    {
                        "element": "O",
                        "occu": 1
                    }
                ],
                "abc": [
                    0.13295226,
                    0.82208091,
                    0.04266405
                ],
                "xyz": [
                    -0.20564006260204232,
                    3.9855678793358824,
                    0.2986005971851707
                ],
                "label": "O",
                "properties": {}
            },
            {
                "species": [
                    {
                        "element": "O",
                        "occu": 1
                    }
                ],
                "abc": [
                    0.86704774,
                    0.17791909,
                    0.95733595
                ],
                "xyz": [
                    2.699724722602042,
                    -1.8163426793358828,
                    6.68951336281483
                ],
                "label": "O",
                "properties": {}
            },
            {
                "species": [
                    {
                        "element": "O",
                        "occu": 1
                    }
                ],
                "abc": [
                    0.22478787,
                    0.98993747,
                    0.75144804
                ],
                "xyz": [
                    -1.0249020540090645,
                    2.821425120719641,
                    5.251582588982554
                ],
                "label": "O",
                "properties": {}
            },
            {
                "species": [
                    {
                        "element": "O",
                        "occu": 1
                    }
                ],
                "abc": [
                    0.77521213,
                    0.01006253,
                    0.24855196
                ],
                "xyz": [
                    3.5189867140090647,
                    -0.6521999207196418,
                    1.736531371017446
                ],
                "label": "O",
                "properties": {}
            },
            {
                "species": [
                    {
                        "element": "O",
                        "occu": 1
                    }
                ],
                "abc": [
                    0.33490003,
                    0.18942637,
                    0.42988624
                ],
                "xyz": [
                    0.8288924644890885,
                    -0.2685058124656463,
                    3.0039810822449775
                ],
                "label": "O",
                "properties": {}
            },
            {
                "species": [
                    {
                        "element": "O",
                        "occu": 1
                    }
                ],
                "abc": [
                    0.05011117,
                    0.57329166,
                    0.33740492
                ],
                "xyz": [
                    -0.8442731708933356,
                    1.9102026097380471,
                    2.3580978576457383
                ],
                "label": "O",
                "properties": {}
            }
        ]
    },
    "spacegroup": {
        "source": "spglib",
        "symbol": "P-1",
        "number": 2,
        "point_group": "-1",
        "crystal_system": "triclinic",
        "hall": "-P 1"
    },
    "dielectric": {
        "epsilon_ionic": [
            [
                13.45138302,
                -0.54056549,
                0.6964413
            ],
            [
                -0.54056549,
                13.66565226,
                1.6638149
            ],
            [
                0.6964413,
                1.6638149,
                19.37292806
            ]
        ],
        "epsilon_ionic_avg": 15.496654446666662,
        "epsilon_ionic_eig": [
            12.603811409178963,
            14.019086123430625,
            19.867065807390404
        ],
        "epsilon_electronic": [
            [
                4.41218665,
                0.18939185,
                -0.02788161
            ],
            [
                0.18938911,
                4.11601796,
                0.13807671
            ],
            [
                -0.02787735,
                0.13807287,
                4.57968476
            ]
        ],
        "epsilon_electronic_avg": 4.369296456666665,
        "epsilon_electronic_eig": [
            3.9919365589516245,
            4.494441379678567,
            4.621511431369803
        ]
    },
    "phonon": {
        "lowest_freq": -0.047270670667338956,
        "frequency": [
            -0.047270670667338956,
            -0.037861198527453975,
            -0.02021863239953497,
            2.522405193796623,
            4.826035662989687,
            5.205651493065472,
            5.446498713269212,
            5.64606925076732,
            6.881814734772254,
            6.982111396179237,
            7.239221212538298,
            7.290060869353007,
            7.627632361696896,
            7.681336832356226,
            7.939479984538674,
            8.03104574154904,
            8.168420924948549,
            8.253992081218168,
            8.50367920417988,
            8.646369316211427,
            8.855714357418053,
            9.407545385084672,
            9.465682634636241,
            9.623996193784642,
            9.907384775244392,
            9.917949352248758,
            9.984247628845484,
            10.177278077092549,
            10.283383067837443,
            10.60236571387718,
            10.673070835092771,
            11.04941122135204,
            11.369831553186,
            11.506703674326857,
            11.72469584760361,
            11.871751290233306,
            11.909943919615056,
            12.010841975375358,
            12.06930100295842,
            12.531368552180222,
            13.062594041389492,
            13.18201365113387,
            13.299576915586401,
            13.326712222664712,
            13.431896684490711,
            13.665784445940751,
            14.034985909848645,
            14.239236891150679,
            14.725677765525141,
            14.798093207090995,
            16.222402239326392,
            17.687186255819817,
            18.102157630025875,
            18.854828253798964,
            19.73543697763393,
            20.73683508600243,
            20.852838324467907,
            21.788591268072594,
            22.72722295961263,
            23.688629658556295
        ]
    },
    "born_effective_charge": {
        "avg_abs_trace": 2.0616026666666665,
        "tensors": [
            [
                [
                    1.20938,
                    0.05835,
                    0.2005
                ],
                [
                    0.08877,
                    1.6072,
                    -0.1113
                ],
                [
                    0.31233,
                    -0.26691,
                    1.16587
                ]
            ],
            [
                [
                    1.20939,
                    0.05835,
                    0.20051
                ],
                [
                    0.08879,
                    1.60721,
                    -0.11131
                ],
                [
                    0.31228,
                    -0.26691,
                    1.16588
                ]
            ],
            [
                [
                    0.70644,
                    -0.12083,
                    -0.44655
                ],
                [
                    -0.11305,
                    1.56588,
                    -0.13663
                ],
                [
                    -0.47607,
                    -0.19261,
                    1.49727
                ]
            ],
            [
                [
                    1.6439,
                    -0.32738,
                    0.112
                ],
                [
                    -0.0086,
                    0.43931,
                    0.1235
                ],
                [
                    0.05617,
                    0.15642,
                    0.75524
                ]
            ],
            [
                [
                    1.04104,
                    0.174,
                    -0.02509
                ],
                [
                    -0.04652,
                    1.63681,
                    -0.28654
                ],
                [
                    -0.08337,
                    -0.12826,
                    0.77992
                ]
            ],
            [
                [
                    1.04105,
                    0.174,
                    -0.02508
                ],
                [
                    -0.04649,
                    1.6368,
                    -0.28654
                ],
                [
                    -0.0834,
                    -0.12824,
                    0.77991
                ]
            ],
            [
                [
                    1.33321,
                    0.01021,
                    -0.01282
                ],
                [
                    -0.01475,
                    0.43791,
                    0.30399
                ],
                [
                    -0.00178,
                    0.26879,
                    1.34425
                ]
            ],
            [
                [
                    1.33321,
                    0.0102,
                    -0.01282
                ],
                [
                    -0.01474,
                    0.4379,
                    0.304
                ],
                [
                    -0.00178,
                    0.2688,
                    1.34423
                ]
            ],
            [
                [
                    5.73359,
                    0.50734,
                    -0.07069
                ],
                [
                    0.49877,
                    4.97206,
                    0.40594
                ],
                [
                    -0.10144,
                    0.47121,
                    6.3589
                ]
            ],
            [
                [
                    5.73358,
                    0.50729,
                    -0.07081
                ],
                [
                    0.49869,
                    4.97195,
                    0.406
                ],
                [
                    -0.10115,
                    0.47142,
                    6.3588
                ]
            ],
            [
                [
                    -2.86097,
                    -1.09401,
                    0.22142
                ],
                [
                    -0.87336,
                    -1.92649,
                    0.19885
                ],
                [
                    0.17181,
                    0.05238,
                    -1.42059
                ]
            ],
            [
                [
                    -2.86101,
                    -1.09399,
                    0.2214
                ],
                [
                    -0.87338,
                    -1.92646,
                    0.199
                ],
                [
                    0.17189,
                    0.05253,
                    -1.42072
                ]
            ],
            [
                [
                    -1.72618,
                    0.34189,
                    -0.7417
                ],
                [
                    0.18811,
                    -1.48319,
                    0.44323
                ],
                [
                    -0.92628,
                    0.73261,
                    -2.91943
                ]
            ],
            [
                [
                    -1.59858,
                    0.71774,
                    0.52329
                ],
                [
                    0.68239,
                    -2.34577,
                    -0.7283
                ],
                [
                    0.63298,
                    -0.89306,
                    -1.84386
                ]
            ],
            [
                [
                    -1.5646,
                    0.45607,
                    -0.2302
                ],
                [
                    0.38067,
                    -1.93462,
                    -0.32394
                ],
                [
                    -0.14838,
                    -0.41983,
                    -3.03845
                ]
            ],
            [
                [
                    -1.56451,
                    0.45608,
                    -0.23019
                ],
                [
                    0.38068,
                    -1.93473,
                    -0.32418
                ],
                [
                    -0.14836,
                    -0.41988,
                    -3.03835
                ]
            ],
            [
                [
                    -2.74193,
                    -0.94762,
                    0.30269
                ],
                [
                    -0.84345,
                    -1.96632,
                    0.10476
                ],
                [
                    0.35438,
                    0.20082,
                    -1.55271
                ]
            ],
            [
                [
                    -2.74187,
                    -0.94757,
                    0.30262
                ],
                [
                    -0.84332,
                    -1.96618,
                    0.10458
                ],
                [
                    0.35431,
                    0.20033,
                    -1.55256
                ]
            ],
            [
                [
                    -1.72644,
                    0.34203,
                    -0.74188
                ],
                [
                    0.18818,
                    -1.48339,
                    0.44334
                ],
                [
                    -0.92678,
                    0.73291,
                    -2.92005
                ]
            ],
            [
                [
                    -1.59869,
                    0.71784,
                    0.52338
                ],
                [
                    0.68263,
                    -2.3459,
                    -0.72845
                ],
                [
                    0.63263,
                    -0.89252,
                    -1.84352
                ]
            ]
        ]
    },
    "band_gap": 2.7513999999999994,
    "is_direct": false,
    "formula": "Li4MoO5"
}