{
    "mp_id": "mp-1220764",
    "nelements": 4,
    "nsites": 28,
    "elements": [
        "Hf",
        "Na",
        "O",
        "Sc"
    ],
    "structure": {
        "@module": "pymatgen.core.structure",
        "@class": "Structure",
        "charge": null,
        "lattice": {
            "matrix": [
                [
                    3.17036258,
                    0.0,
                    0.0
                ],
                [
                    0.0,
                    11.21487896,
                    0.0
                ],
                [
                    0.0,
                    0.0,
                    9.47262584
                ]
            ],
            "a": 3.17036258,
            "b": 11.21487896,
            "c": 9.47262584,
            "alpha": 90.0,
            "beta": 90.0,
            "gamma": 90.0,
            "volume": 336.80141501726075
        },
        "sites": [
            {
                "species": [
                    {
                        "element": "Na",
                        "occu": 1
                    }
                ],
                "abc": [
                    0.5,
                    0.89279342,
                    0.25385115
                ],
                "xyz": [
                    1.58518129,
                    10.012570141584442,
                    2.404636963003716
                ],
                "label": "Na",
                "properties": {}
            },
            {
                "species": [
                    {
                        "element": "Na",
                        "occu": 1
                    }
                ],
                "abc": [
                    0.5,
                    0.10720658,
                    0.75385115
                ],
                "xyz": [
                    1.58518129,
                    1.2023088184155568,
                    7.1409498830037155
                ],
                "label": "Na",
                "properties": {}
            },
            {
                "species": [
                    {
                        "element": "Na",
                        "occu": 1
                    }
                ],
                "abc": [
                    0.0,
                    0.60315284,
                    0.74161555
                ],
                "xyz": [
                    0.0,
                    6.764286094980247,
                    7.025046622275812
                ],
                "label": "Na",
                "properties": {}
            },
            {
                "species": [
                    {
                        "element": "Na",
                        "occu": 1
                    }
                ],
                "abc": [
                    0.0,
                    0.39684716,
                    0.24161555
                ],
                "xyz": [
                    0.0,
                    4.450592865019753,
                    2.288733702275812
                ],
                "label": "Na",
                "properties": {}
            },
            {
                "species": [
                    {
                        "element": "Hf",
                        "occu": 1
                    }
                ],
                "abc": [
                    0.0,
                    0.36135618,
                    0.5670874
                ],
                "xyz": [
                    0.0,
                    4.052565820147973,
                    5.3718067587784155
                ],
                "label": "Hf",
                "properties": {}
            },
            {
                "species": [
                    {
                        "element": "Hf",
                        "occu": 1
                    }
                ],
                "abc": [
                    0.0,
                    0.63864382,
                    0.0670874
                ],
                "xyz": [
                    0.0,
                    7.162313139852027,
                    0.635493838778416
                ],
                "label": "Hf",
                "properties": {}
            },
            {
                "species": [
                    {
                        "element": "Hf",
                        "occu": 1
                    }
                ],
                "abc": [
                    0.0,
                    0.85588506,
                    0.58021484
                ],
                "xyz": [
                    0.0,
                    9.598647351572337,
                    5.496158086135465
                ],
                "label": "Hf",
                "properties": {}
            },
            {
                "species": [
                    {
                        "element": "Hf",
                        "occu": 1
                    }
                ],
                "abc": [
                    0.0,
                    0.14411494,
                    0.08021484
                ],
                "xyz": [
                    0.0,
                    1.6162316084276624,
                    0.7598451661354655
                ],
                "label": "Hf",
                "properties": {}
            },
            {
                "species": [
                    {
                        "element": "Sc",
                        "occu": 1
                    }
                ],
                "abc": [
                    0.5,
                    0.13612756,
                    0.4302043
                ],
                "xyz": [
                    1.58518129,
                    1.5266541085201377,
                    4.075164368659111
                ],
                "label": "Sc",
                "properties": {}
            },
            {
                "species": [
                    {
                        "element": "Sc",
                        "occu": 1
                    }
                ],
                "abc": [
                    0.5,
                    0.86387244,
                    0.9302043
                ],
                "xyz": [
                    1.58518129,
                    9.688224851479863,
                    8.81147728865911
                ],
                "label": "Sc",
                "properties": {}
            },
            {
                "species": [
                    {
                        "element": "Sc",
                        "occu": 1
                    }
                ],
                "abc": [
                    0.5,
                    0.64229152,
                    0.42178548
                ],
                "xyz": [
                    1.58518129,
                    7.20322165383442,
                    3.995416036784803
                ],
                "label": "Sc",
                "properties": {}
            },
            {
                "species": [
                    {
                        "element": "Sc",
                        "occu": 1
                    }
                ],
                "abc": [
                    0.5,
                    0.35770848,
                    0.92178548
                ],
                "xyz": [
                    1.58518129,
                    4.0116573061655805,
                    8.731728956784803
                ],
                "label": "Sc",
                "properties": {}
            },
            {
                "species": [
                    {
                        "element": "O",
                        "occu": 1
                    }
                ],
                "abc": [
                    0.5,
                    0.59549931,
                    0.20630461
                ],
                "xyz": [
                    1.58518129,
                    6.678452682413518,
                    1.9542463795971223
                ],
                "label": "O",
                "properties": {}
            },
            {
                "species": [
                    {
                        "element": "O",
                        "occu": 1
                    }
                ],
                "abc": [
                    0.5,
                    0.40450069,
                    0.70630461
                ],
                "xyz": [
                    1.58518129,
                    4.536426277586482,
                    6.690559299597122
                ],
                "label": "O",
                "properties": {}
            },
            {
                "species": [
                    {
                        "element": "O",
                        "occu": 1
                    }
                ],
                "abc": [
                    0.0,
                    0.90739173,
                    0.79252097
                ],
                "xyz": [
                    0.0,
                    10.176288421255,
                    7.507254619163864
                ],
                "label": "O",
                "properties": {}
            },
            {
                "species": [
                    {
                        "element": "O",
                        "occu": 1
                    }
                ],
                "abc": [
                    0.0,
                    0.09260827,
                    0.29252097
                ],
                "xyz": [
                    0.0,
                    1.0385905387449992,
                    2.7709416991638647
                ],
                "label": "O",
                "properties": {}
            },
            {
                "species": [
                    {
                        "element": "O",
                        "occu": 1
                    }
                ],
                "abc": [
                    0.5,
                    0.26576775,
                    0.12012102
                ],
                "xyz": [
                    1.58518129,
                    2.9805531477215403,
                    1.1378614779791567
                ],
                "label": "O",
                "properties": {}
            },
            {
                "species": [
                    {
                        "element": "O",
                        "occu": 1
                    }
                ],
                "abc": [
                    0.5,
                    0.73423225,
                    0.62012102
                ],
                "xyz": [
                    1.58518129,
                    8.23432581227846,
                    5.874174397979156
                ],
                "label": "O",
                "properties": {}
            },
            {
                "species": [
                    {
                        "element": "O",
                        "occu": 1
                    }
                ],
                "abc": [
                    0.0,
                    0.23480069,
                    0.88547112
                ],
                "xyz": [
                    0.0,
                    2.6332613180744824,
                    8.387736611885739
                ],
                "label": "O",
                "properties": {}
            },
            {
                "species": [
                    {
                        "element": "O",
                        "occu": 1
                    }
                ],
                "abc": [
                    0.0,
                    0.76519931,
                    0.38547112
                ],
                "xyz": [
                    0.0,
                    8.581617641925517,
                    3.6514236918857406
                ],
                "label": "O",
                "properties": {}
            },
            {
                "species": [
                    {
                        "element": "O",
                        "occu": 1
                    }
                ],
                "abc": [
                    0.5,
                    0.32547018,
                    0.42455473
                ],
                "xyz": [
                    1.58518129,
                    3.6501086737894126,
                    4.021648105892223
                ],
                "label": "O",
                "properties": {}
            },
            {
                "species": [
                    {
                        "element": "O",
                        "occu": 1
                    }
                ],
                "abc": [
                    0.5,
                    0.67452982,
                    0.92455473
                ],
                "xyz": [
                    1.58518129,
                    7.564770286210587,
                    8.757961025892222
                ],
                "label": "O",
                "properties": {}
            },
            {
                "species": [
                    {
                        "element": "O",
                        "occu": 1
                    }
                ],
                "abc": [
                    0.0,
                    0.17559891,
                    0.57260848
                ],
                "xyz": [
                    0.0,
                    1.9693205211579337,
                    5.424105883851123
                ],
                "label": "O",
                "properties": {}
            },
            {
                "species": [
                    {
                        "element": "O",
                        "occu": 1
                    }
                ],
                "abc": [
                    0.0,
                    0.82440109,
                    0.07260848
                ],
                "xyz": [
                    0.0,
                    9.245558438842066,
                    0.6877929638511232
                ],
                "label": "O",
                "properties": {}
            },
            {
                "species": [
                    {
                        "element": "O",
                        "occu": 1
                    }
                ],
                "abc": [
                    0.5,
                    0.03420897,
                    0.01978458
                ],
                "xyz": [
                    1.58518129,
                    0.3836494578962712,
                    0.1874119237415472
                ],
                "label": "O",
                "properties": {}
            },
            {
                "species": [
                    {
                        "element": "O",
                        "occu": 1
                    }
                ],
                "abc": [
                    0.5,
                    0.96579103,
                    0.51978458
                ],
                "xyz": [
                    1.58518129,
                    10.831229502103728,
                    4.923724843741547
                ],
                "label": "O",
                "properties": {}
            },
            {
                "species": [
                    {
                        "element": "O",
                        "occu": 1
                    }
                ],
                "abc": [
                    0.0,
                    0.46596042,
                    0.98387377
                ],
                "xyz": [
                    0.0,
                    5.225689710450763,
                    9.319868097000215
                ],
                "label": "O",
                "properties": {}
            },
            {
                "species": [
                    {
                        "element": "O",
                        "occu": 1
                    }
                ],
                "abc": [
                    0.0,
                    0.53403958,
                    0.48387377
                ],
                "xyz": [
                    0.0,
                    5.989189249549236,
                    4.583555177000216
                ],
                "label": "O",
                "properties": {}
            }
        ]
    },
    "spacegroup": {
        "source": "spglib",
        "symbol": "Pmc2_1",
        "number": 26,
        "point_group": "mm2",
        "crystal_system": "orthorhombic",
        "hall": "P 2c -2"
    },
    "dielectric": {
        "epsilon_ionic": [
            [
                15.22673684,
                -0.0,
                4e-08
            ],
            [
                -0.0,
                12.08286984,
                5.9e-07
            ],
            [
                4e-08,
                5.9e-07,
                10.90292252
            ]
        ],
        "epsilon_ionic_avg": 12.737509733333331,
        "epsilon_ionic_eig": [
            15.22673684,
            10.902922519999702,
            12.082869840000296
        ],
        "epsilon_electronic": [
            [
                4.34291158,
                0.0,
                0.0
            ],
            [
                0.0,
                3.94377474,
                0.0
            ],
            [
                0.0,
                0.0,
                3.71894749
            ]
        ],
        "epsilon_electronic_avg": 4.001877936666666,
        "epsilon_electronic_eig": [
            4.34291158,
            3.94377474,
            3.71894749
        ]
    },
    "phonon": {
        "lowest_freq": -0.1160437867266676,
        "frequency": [
            -0.1160437867266676,
            -0.09036762953432635,
            -0.033939675015195285,
            1.5174614367459796,
            2.011485190789747,
            2.2270916269129963,
            2.3493878021710874,
            2.416050896951109,
            2.478179997395357,
            2.8135105154748645,
            2.81735354098914,
            3.2355265305634178,
            3.2676969085397904,
            3.3796355886290197,
            3.382184964344436,
            3.670923775114934,
            4.145330052036752,
            4.410296643567945,
            4.524845202232391,
            4.604856896561913,
            4.781919759230679,
            4.813801183383914,
            4.888130737553242,
            4.911613997182839,
            4.952017805447204,
            5.103656065001071,
            5.213422864490821,
            5.644591376697472,
            5.840833360361082,
            5.979824498209987,
            6.363993068616799,
            6.49741752244499,
            7.329268844536964,
            7.4624471349557355,
            7.5388016441567824,
            7.991722988120031,
            8.055968744207727,
            8.095073736766066,
            8.829818009829042,
            9.094440857407482,
            9.459949412111404,
            9.707022709762434,
            9.877580729452704,
            10.10784362717747,
            10.476154294349978,
            10.739372835930775,
            10.9020465824463,
            10.918824317841983,
            11.068234024017077,
            11.605574235046054,
            11.765064678901068,
            11.864167549641211,
            11.911898928374901,
            11.933955196373189,
            12.40008990295524,
            12.623060381668145,
            12.629958358067181,
            12.64177918060393,
            13.027754992390689,
            13.113239158034586,
            13.132856903944665,
            13.177099077483598,
            13.60627936353877,
            13.907486716796898,
            14.382240417280354,
            14.396770852455742,
            14.406228356311773,
            14.864266693626623,
            14.871812174254742,
            15.197896323352406,
            15.276797010235668,
            15.580789370894518,
            16.12064335070729,
            16.247396691990723,
            16.338983421614056,
            16.517072753071336,
            16.855500918204143,
            19.416517909857102,
            19.60333495555492,
            20.15379452698447,
            20.551338605395728,
            20.810282861244144,
            21.195667173224948,
            21.570249536348463
        ]
    },
    "born_effective_charge": {
        "avg_abs_trace": 2.7819783333333334,
        "tensors": [
            [
                [
                    0.99439,
                    0.0,
                    -0.0
                ],
                [
                    0.0,
                    1.21179,
                    -0.02295
                ],
                [
                    0.0,
                    -0.0156,
                    1.22218
                ]
            ],
            [
                [
                    0.99439,
                    -0.0,
                    -0.0
                ],
                [
                    0.0,
                    1.21179,
                    0.02295
                ],
                [
                    0.0,
                    0.0156,
                    1.22218
                ]
            ],
            [
                [
                    0.99691,
                    -0.0,
                    -0.0
                ],
                [
                    0.0,
                    1.17086,
                    -0.02465
                ],
                [
                    0.0,
                    0.00427,
                    1.21032
                ]
            ],
            [
                [
                    0.99691,
                    0.0,
                    -0.0
                ],
                [
                    0.0,
                    1.17086,
                    0.02465
                ],
                [
                    0.0,
                    -0.00427,
                    1.21032
                ]
            ],
            [
                [
                    5.44606,
                    -0.0,
                    -0.0
                ],
                [
                    0.0,
                    4.98328,
                    -0.07483
                ],
                [
                    0.0,
                    0.27651,
                    3.85548
                ]
            ],
            [
                [
                    5.44606,
                    0.0,
                    -0.0
                ],
                [
                    0.0,
                    4.98328,
                    0.07483
                ],
                [
                    0.0,
                    -0.27651,
                    3.85548
                ]
            ],
            [
                [
                    5.56185,
                    0.0,
                    -0.0
                ],
                [
                    0.0,
                    4.22942,
                    0.37617
                ],
                [
                    0.0,
                    0.58519,
                    4.44787
                ]
            ],
            [
                [
                    5.56185,
                    -0.0,
                    -0.0
                ],
                [
                    0.0,
                    4.22942,
                    -0.37617
                ],
                [
                    0.0,
                    -0.58519,
                    4.44787
                ]
            ],
            [
                [
                    4.41288,
                    0.0,
                    0.0
                ],
                [
                    0.0,
                    3.93137,
                    0.03735
                ],
                [
                    0.0,
                    0.28764,
                    3.30111
                ]
            ],
            [
                [
                    4.41288,
                    -0.0,
                    0.0
                ],
                [
                    0.0,
                    3.93137,
                    -0.03735
                ],
                [
                    0.0,
                    -0.28764,
                    3.30111
                ]
            ],
            [
                [
                    4.52772,
                    0.0,
                    0.0
                ],
                [
                    0.0,
                    3.51452,
                    0.11781
                ],
                [
                    0.0,
                    0.42597,
                    3.40353
                ]
            ],
            [
                [
                    4.52772,
                    -0.0,
                    0.0
                ],
                [
                    0.0,
                    3.51452,
                    -0.11781
                ],
                [
                    0.0,
                    -0.42597,
                    3.40353
                ]
            ],
            [
                [
                    -2.81776,
                    -0.0,
                    -0.0
                ],
                [
                    0.0,
                    -1.383,
                    0.05788
                ],
                [
                    0.0,
                    0.00636,
                    -3.2514
                ]
            ],
            [
                [
                    -2.81776,
                    0.0,
                    -0.0
                ],
                [
                    0.0,
                    -1.383,
                    -0.05788
                ],
                [
                    0.0,
                    -0.00636,
                    -3.2514
                ]
            ],
            [
                [
                    -2.6535,
                    -0.0,
                    0.0
                ],
                [
                    0.0,
                    -1.46587,
                    -0.04792
                ],
                [
                    0.0,
                    -0.12408,
                    -3.48111
                ]
            ],
            [
                [
                    -2.6535,
                    0.0,
                    0.0
                ],
                [
                    0.0,
                    -1.46587,
                    0.04792
                ],
                [
                    0.0,
                    0.12408,
                    -3.48111
                ]
            ],
            [
                [
                    -2.83355,
                    0.0,
                    -0.0
                ],
                [
                    0.0,
                    -2.20405,
                    0.3671
                ],
                [
                    0.0,
                    0.33223,
                    -1.92433
                ]
            ],
            [
                [
                    -2.83355,
                    -0.0,
                    -0.0
                ],
                [
                    0.0,
                    -2.20405,
                    -0.3671
                ],
                [
                    0.0,
                    -0.33223,
                    -1.92433
                ]
            ],
            [
                [
                    -2.62745,
                    0.0,
                    0.0
                ],
                [
                    0.0,
                    -2.28072,
                    0.52959
                ],
                [
                    0.0,
                    0.53314,
                    -2.20542
                ]
            ],
            [
                [
                    -2.62745,
                    -0.0,
                    0.0
                ],
                [
                    0.0,
                    -2.28072,
                    -0.52959
                ],
                [
                    0.0,
                    -0.53314,
                    -2.20542
                ]
            ],
            [
                [
                    -2.83094,
                    -0.0,
                    -0.0
                ],
                [
                    0.0,
                    -2.26767,
                    -0.30626
                ],
                [
                    0.0,
                    -0.3883,
                    -1.83127
                ]
            ],
            [
                [
                    -2.83094,
                    0.0,
                    -0.0
                ],
                [
                    0.0,
                    -2.26767,
                    0.30626
                ],
                [
                    0.0,
                    0.3883,
                    -1.83127
                ]
            ],
            [
                [
                    -2.61333,
                    -0.0,
                    -0.0
                ],
                [
                    0.0,
                    -2.63682,
                    -0.33401
                ],
                [
                    0.0,
                    -0.40206,
                    -1.82907
                ]
            ],
            [
                [
                    -2.61333,
                    0.0,
                    -0.0
                ],
                [
                    0.0,
                    -2.63682,
                    0.33401
                ],
                [
                    0.0,
                    0.40206,
                    -1.82907
                ]
            ],
            [
                [
                    -2.86831,
                    0.0,
                    -0.0
                ],
                [
                    0.0,
                    -3.30153,
                    -0.92101
                ],
                [
                    0.0,
                    -0.69547,
                    -1.47283
                ]
            ],
            [
                [
                    -2.86831,
                    -0.0,
                    -0.0
                ],
                [
                    0.0,
                    -3.30153,
                    0.92101
                ],
                [
                    0.0,
                    0.69547,
                    -1.47283
                ]
            ],
            [
                [
                    -2.69499,
                    -0.0,
                    -0.0
                ],
                [
                    0.0,
                    -3.50158,
                    -0.98577
                ],
                [
                    0.0,
                    -0.64537,
                    -1.44505
                ]
            ],
            [
                [
                    -2.69499,
                    0.0,
                    -0.0
                ],
                [
                    0.0,
                    -3.50158,
                    0.98577
                ],
                [
                    0.0,
                    0.64537,
                    -1.44505
                ]
            ]
        ]
    },
    "band_gap": 4.2681000000000004,
    "is_direct": false,
    "formula": "NaHfScO4"
}