{
    "mp_id": "mp-18853",
    "nelements": 4,
    "nsites": 20,
    "elements": [
        "Ag",
        "O",
        "Tl",
        "V"
    ],
    "structure": {
        "@module": "pymatgen.core.structure",
        "@class": "Structure",
        "charge": null,
        "lattice": {
            "matrix": [
                [
                    5.34184691,
                    -5.04082452,
                    0.00068989
                ],
                [
                    5.34184691,
                    5.04082452,
                    0.00068989
                ],
                [
                    -1.52624109,
                    0.0,
                    5.70481729
                ]
            ],
            "a": 7.344742386718407,
            "b": 7.344742386718407,
            "c": 5.905451056192688,
            "alpha": 100.82895511479926,
            "beta": 100.82895511479926,
            "gamma": 86.67860339627943,
            "volume": 307.2414156068183
        },
        "sites": [
            {
                "species": [
                    {
                        "element": "Tl",
                        "occu": 1
                    }
                ],
                "abc": [
                    0.28553361,
                    0.71446639,
                    0.75
                ],
                "xyz": [
                    4.1971660925,
                    2.162174874855766,
                    4.2793028575
                ],
                "label": "Tl",
                "properties": {}
            },
            {
                "species": [
                    {
                        "element": "Tl",
                        "occu": 1
                    }
                ],
                "abc": [
                    0.71446639,
                    0.28553361,
                    0.25
                ],
                "xyz": [
                    4.9602866375,
                    -2.162174874855766,
                    1.4268942125000001
                ],
                "label": "Tl",
                "properties": {}
            },
            {
                "species": [
                    {
                        "element": "V",
                        "occu": 1
                    }
                ],
                "abc": [
                    0.63033861,
                    0.79544677,
                    0.28156828
                ],
                "xyz": [
                    7.186586147899551,
                    0.832281261380083,
                    1.6072792271353695
                ],
                "label": "V",
                "properties": {}
            },
            {
                "species": [
                    {
                        "element": "V",
                        "occu": 1
                    }
                ],
                "abc": [
                    0.20455323,
                    0.36966139,
                    0.21843172
                ],
                "xyz": [
                    2.733987127100449,
                    0.832281261380083,
                    1.2465091978646305
                ],
                "label": "V",
                "properties": {}
            },
            {
                "species": [
                    {
                        "element": "V",
                        "occu": 1
                    }
                ],
                "abc": [
                    0.36966139,
                    0.20455323,
                    0.71843172
                ],
                "xyz": [
                    1.9708665821004492,
                    -0.832281261380083,
                    4.098917842864631
                ],
                "label": "V",
                "properties": {}
            },
            {
                "species": [
                    {
                        "element": "V",
                        "occu": 1
                    }
                ],
                "abc": [
                    0.79544677,
                    0.63033861,
                    0.78156828
                ],
                "xyz": [
                    6.423465602899551,
                    -0.832281261380083,
                    4.45968787213537
                ],
                "label": "V",
                "properties": {}
            },
            {
                "species": [
                    {
                        "element": "Ag",
                        "occu": 1
                    }
                ],
                "abc": [
                    0.89660698,
                    0.10339302,
                    0.75
                ],
                "xyz": [
                    4.197166092500001,
                    -3.9984523791743,
                    4.2793028575
                ],
                "label": "Ag",
                "properties": {}
            },
            {
                "species": [
                    {
                        "element": "Ag",
                        "occu": 1
                    }
                ],
                "abc": [
                    0.10339302,
                    0.89660698,
                    0.25
                ],
                "xyz": [
                    4.960286637500001,
                    3.9984523791743,
                    1.4268942125000001
                ],
                "label": "Ag",
                "properties": {}
            },
            {
                "species": [
                    {
                        "element": "O",
                        "occu": 1
                    }
                ],
                "abc": [
                    0.66730534,
                    0.64035514,
                    0.01712792
                ],
                "xyz": [
                    6.959180759126885,
                    -0.13585122897890356,
                    0.09861379604628402
                ],
                "label": "O",
                "properties": {}
            },
            {
                "species": [
                    {
                        "element": "O",
                        "occu": 1
                    }
                ],
                "abc": [
                    0.35964486,
                    0.33269466,
                    0.48287208
                ],
                "xyz": [
                    2.9613925158731162,
                    -0.13585122897890423,
                    2.755174628953716
                ],
                "label": "O",
                "properties": {}
            },
            {
                "species": [
                    {
                        "element": "O",
                        "occu": 1
                    }
                ],
                "abc": [
                    0.33269466,
                    0.35964486,
                    0.98287208
                ],
                "xyz": [
                    2.198271970873116,
                    0.13585122897890423,
                    5.607583273953717
                ],
                "label": "O",
                "properties": {}
            },
            {
                "species": [
                    {
                        "element": "O",
                        "occu": 1
                    }
                ],
                "abc": [
                    0.64035514,
                    0.66730534,
                    0.51712792
                ],
                "xyz": [
                    6.196060214126885,
                    0.13585122897890356,
                    2.951022441046284
                ],
                "label": "O",
                "properties": {}
            },
            {
                "species": [
                    {
                        "element": "O",
                        "occu": 1
                    }
                ],
                "abc": [
                    0.10308042,
                    0.57706741,
                    0.27759547
                ],
                "xyz": [
                    3.209567971316843,
                    2.3892852413529946,
                    1.584100664068115
                ],
                "label": "O",
                "properties": {}
            },
            {
                "species": [
                    {
                        "element": "O",
                        "occu": 1
                    }
                ],
                "abc": [
                    0.42293259,
                    0.89691958,
                    0.22240453
                ],
                "xyz": [
                    6.711005303683158,
                    2.389285241352995,
                    1.269687760931885
                ],
                "label": "O",
                "properties": {}
            },
            {
                "species": [
                    {
                        "element": "O",
                        "occu": 1
                    }
                ],
                "abc": [
                    0.89691958,
                    0.42293259,
                    0.72240453
                ],
                "xyz": [
                    5.947884758683157,
                    -2.389285241352995,
                    4.122096405931885
                ],
                "label": "O",
                "properties": {}
            },
            {
                "species": [
                    {
                        "element": "O",
                        "occu": 1
                    }
                ],
                "abc": [
                    0.57706741,
                    0.10308042,
                    0.77759547
                ],
                "xyz": [
                    2.4464474263168428,
                    -2.3892852413529946,
                    4.436509309068114
                ],
                "label": "O",
                "properties": {}
            },
            {
                "species": [
                    {
                        "element": "O",
                        "occu": 1
                    }
                ],
                "abc": [
                    0.2024198,
                    0.04592621,
                    0.64518414
                ],
                "xyz": [
                    0.3419198210450165,
                    -0.7888567256948268,
                    3.68082896853462
                ],
                "label": "O",
                "properties": {}
            },
            {
                "species": [
                    {
                        "element": "O",
                        "occu": 1
                    }
                ],
                "abc": [
                    0.95407379,
                    0.7975802,
                    0.85481586
                ],
                "xyz": [
                    8.052412363954982,
                    -0.7888567256948278,
                    4.87777674646538
                ],
                "label": "O",
                "properties": {}
            },
            {
                "species": [
                    {
                        "element": "O",
                        "occu": 1
                    }
                ],
                "abc": [
                    0.7975802,
                    0.95407379,
                    0.35481586
                ],
                "xyz": [
                    8.815532908954982,
                    0.7888567256948278,
                    2.0253681014653804
                ],
                "label": "O",
                "properties": {}
            },
            {
                "species": [
                    {
                        "element": "O",
                        "occu": 1
                    }
                ],
                "abc": [
                    0.04592621,
                    0.2024198,
                    0.14518414
                ],
                "xyz": [
                    1.1050403660450165,
                    0.7888567256948268,
                    0.8284203235346195
                ],
                "label": "O",
                "properties": {}
            }
        ]
    },
    "spacegroup": {
        "source": "spglib",
        "symbol": "C2/c",
        "number": 15,
        "point_group": "2/m",
        "crystal_system": "monoclinic",
        "hall": "-C 2yc"
    },
    "dielectric": {
        "epsilon_ionic": [
            [
                6.49842695,
                -2.3e-07,
                0.56761626
            ],
            [
                -2.3e-07,
                5.15476076,
                -1e-07
            ],
            [
                0.56761626,
                -1e-07,
                7.59756248
            ]
        ],
        "epsilon_ionic_avg": 6.416916730000001,
        "epsilon_ionic_eig": [
            7.838066197173294,
            6.257923232826749,
            5.154760759999963
        ],
        "epsilon_electronic": [
            [
                4.81266272,
                0.0,
                0.24062286
            ],
            [
                0.0,
                4.59235218,
                0.0
            ],
            [
                0.240624,
                0.0,
                4.90877604
            ]
        ],
        "epsilon_electronic_avg": 4.771263646666667,
        "epsilon_electronic_eig": [
            4.615343998930514,
            5.106094761069486,
            4.59235218
        ]
    },
    "phonon": {
        "lowest_freq": -0.050765288875097216,
        "frequency": [
            -0.050765288875097216,
            -0.04387948374000506,
            -0.02427299236895614,
            0.7530675649879802,
            0.8830249707930173,
            1.2081275544276053,
            1.3167847170800182,
            1.7284299305889559,
            1.740424000434575,
            1.798616409163796,
            1.808679306718875,
            1.9225232047417466,
            2.239484856986674,
            2.3100652580879895,
            2.3391725346274463,
            2.6471634571186344,
            3.2354400364152593,
            3.329084362157652,
            3.7060615965701045,
            3.7272554382879726,
            3.9779529150736246,
            4.240803397444879,
            4.5315498233536795,
            4.9961634576967064,
            5.050715648930049,
            5.406812133043179,
            5.778020009056352,
            6.05306015761172,
            6.164331805434697,
            6.436281316426168,
            6.502078075381281,
            6.72044620213616,
            6.991689223143867,
            7.465010433414331,
            8.314661078008426,
            8.589716724039166,
            8.992257222825339,
            9.246450220278527,
            9.253454064108372,
            9.53967659396612,
            9.570850882227043,
            9.962585413684247,
            10.08792292258088,
            10.107883172272128,
            13.740952586946701,
            14.364071097651653,
            16.16572718610056,
            16.501138437190797,
            19.982351711140154,
            19.986453867053868,
            23.483875501849102,
            23.966964933360106,
            25.486891221579643,
            25.487169404158212,
            25.500891083420644,
            26.088843744928987,
            26.64839566937468,
            26.925680667344288,
            27.05805614560179,
            27.248266822115102
        ]
    },
    "born_effective_charge": {
        "avg_abs_trace": 2.2224119999999994,
        "tensors": [
            [
                [
                    1.91743,
                    9e-05,
                    0.20412
                ],
                [
                    -0.0,
                    2.01226,
                    0.0
                ],
                [
                    0.16279,
                    -0.00015,
                    1.68083
                ]
            ],
            [
                [
                    1.91743,
                    -9e-05,
                    0.20412
                ],
                [
                    0.0,
                    2.0125,
                    0.0
                ],
                [
                    0.16279,
                    0.00015,
                    1.68083
                ]
            ],
            [
                [
                    3.5004,
                    -0.67408,
                    -0.2253
                ],
                [
                    0.57536,
                    3.39822,
                    0.03292
                ],
                [
                    -0.26211,
                    -0.07124,
                    4.90297
                ]
            ],
            [
                [
                    3.50028,
                    0.67398,
                    -0.22561
                ],
                [
                    -0.57536,
                    3.39822,
                    -0.03292
                ],
                [
                    -0.262,
                    0.07146,
                    4.90268
                ]
            ],
            [
                [
                    3.50028,
                    -0.67398,
                    -0.22561
                ],
                [
                    0.57494,
                    3.39845,
                    0.03296
                ],
                [
                    -0.262,
                    -0.07146,
                    4.90268
                ]
            ],
            [
                [
                    3.5004,
                    0.67408,
                    -0.2253
                ],
                [
                    -0.57494,
                    3.39845,
                    -0.03296
                ],
                [
                    -0.26211,
                    0.07124,
                    4.90297
                ]
            ],
            [
                [
                    1.48994,
                    0.00011,
                    0.14576
                ],
                [
                    -0.0,
                    1.42402,
                    0.0
                ],
                [
                    0.18554,
                    -5e-05,
                    1.20844
                ]
            ],
            [
                [
                    1.48994,
                    -0.00011,
                    0.14576
                ],
                [
                    -0.0,
                    1.42432,
                    0.0
                ],
                [
                    0.18554,
                    5e-05,
                    1.20844
                ]
            ],
            [
                [
                    -1.17174,
                    0.41928,
                    0.87413
                ],
                [
                    0.49505,
                    -1.76654,
                    -1.64438
                ],
                [
                    0.95602,
                    -1.97504,
                    -4.19448
                ]
            ],
            [
                [
                    -1.17178,
                    -0.41909,
                    0.8743
                ],
                [
                    -0.49505,
                    -1.76654,
                    1.64438
                ],
                [
                    0.95577,
                    1.97512,
                    -4.19433
                ]
            ],
            [
                [
                    -1.17178,
                    0.41909,
                    0.8743
                ],
                [
                    0.49498,
                    -1.76654,
                    -1.64446
                ],
                [
                    0.95577,
                    -1.97512,
                    -4.19433
                ]
            ],
            [
                [
                    -1.17174,
                    -0.41928,
                    0.87413
                ],
                [
                    -0.49498,
                    -1.76654,
                    1.64446
                ],
                [
                    0.95602,
                    1.97504,
                    -4.19448
                ]
            ],
            [
                [
                    -1.00615,
                    -1.26856,
                    -0.38564
                ],
                [
                    -0.61843,
                    -2.2844,
                    -0.3153
                ],
                [
                    -0.28823,
                    -0.54213,
                    -1.19941
                ]
            ],
            [
                [
                    -1.00615,
                    1.26848,
                    -0.38581
                ],
                [
                    0.61843,
                    -2.2844,
                    0.3153
                ],
                [
                    -0.28838,
                    0.54193,
                    -1.19939
                ]
            ],
            [
                [
                    -1.00615,
                    -1.26848,
                    -0.38581
                ],
                [
                    -0.6186,
                    -2.28633,
                    -0.31544
                ],
                [
                    -0.28838,
                    -0.54193,
                    -1.19939
                ]
            ],
            [
                [
                    -1.00615,
                    1.26856,
                    -0.38564
                ],
                [
                    0.6186,
                    -2.28633,
                    0.31544
                ],
                [
                    -0.28823,
                    0.54213,
                    -1.19941
                ]
            ],
            [
                [
                    -3.02622,
                    -0.23049,
                    -0.43812
                ],
                [
                    -0.41857,
                    -1.06477,
                    -0.11473
                ],
                [
                    -0.57978,
                    0.03877,
                    -0.95372
                ]
            ],
            [
                [
                    -3.02601,
                    0.23038,
                    -0.43782
                ],
                [
                    0.41857,
                    -1.06477,
                    0.11473
                ],
                [
                    -0.57961,
                    -0.03879,
                    -0.95358
                ]
            ],
            [
                [
                    -3.02601,
                    -0.23038,
                    -0.43782
                ],
                [
                    -0.42026,
                    -1.06463,
                    -0.11541
                ],
                [
                    -0.57961,
                    0.03879,
                    -0.95358
                ]
            ],
            [
                [
                    -3.02622,
                    0.23049,
                    -0.43812
                ],
                [
                    0.42026,
                    -1.06463,
                    0.11541
                ],
                [
                    -0.57978,
                    -0.03877,
                    -0.95372
                ]
            ]
        ]
    },
    "band_gap": 2.5443,
    "is_direct": false,
    "formula": "TlV2AgO6"
}