{
    "mp_id": "mp-16871",
    "nelements": 4,
    "nsites": 24,
    "elements": [
        "Ge",
        "K",
        "O",
        "Zr"
    ],
    "structure": {
        "@module": "pymatgen.core.structure",
        "@class": "Structure",
        "charge": null,
        "lattice": {
            "matrix": [
                [
                    5.03999094,
                    -2.80694827,
                    -0.00270821
                ],
                [
                    5.03999094,
                    2.80694827,
                    -0.00270821
                ],
                [
                    -3.40061629,
                    0.0,
                    12.59012273
                ]
            ],
            "a": 5.768923175094246,
            "b": 5.768923175094246,
            "c": 13.041295238904608,
            "alpha": 103.19481387438455,
            "beta": 103.19481387438455,
            "gamma": 58.22993771335844,
            "volume": 356.17307601392145
        },
        "sites": [
            {
                "species": [
                    {
                        "element": "K",
                        "occu": 1
                    }
                ],
                "abc": [
                    0.94108479,
                    0.35725859,
                    0.67919227
                ],
                "xyz": [
                    4.2339665748048985,
                    -1.638769942070674,
                    8.547597850042147
                ],
                "label": "K",
                "properties": {}
            },
            {
                "species": [
                    {
                        "element": "K",
                        "occu": 1
                    }
                ],
                "abc": [
                    0.64274141,
                    0.05891521,
                    0.82080773
                ],
                "xyz": [
                    0.7450908701951011,
                    -1.6387699420706738,
                    10.33216982495785
                ],
                "label": "K",
                "properties": {}
            },
            {
                "species": [
                    {
                        "element": "K",
                        "occu": 1
                    }
                ],
                "abc": [
                    0.05891521,
                    0.64274141,
                    0.32080773
                ],
                "xyz": [
                    2.445399015195101,
                    1.6387699420706738,
                    4.037108459957853
                ],
                "label": "K",
                "properties": {}
            },
            {
                "species": [
                    {
                        "element": "K",
                        "occu": 1
                    }
                ],
                "abc": [
                    0.35725859,
                    0.94108479,
                    0.17919227
                ],
                "xyz": [
                    5.934274719804899,
                    1.638769942070674,
                    2.252536485042147
                ],
                "label": "K",
                "properties": {}
            },
            {
                "species": [
                    {
                        "element": "Zr",
                        "occu": 1
                    }
                ],
                "abc": [
                    0.0,
                    0.5,
                    0.0
                ],
                "xyz": [
                    2.51999547,
                    1.403474135,
                    -0.001354105
                ],
                "label": "Zr",
                "properties": {}
            },
            {
                "species": [
                    {
                        "element": "Zr",
                        "occu": 1
                    }
                ],
                "abc": [
                    0.5,
                    0.0,
                    0.5
                ],
                "xyz": [
                    0.8196873250000001,
                    -1.403474135,
                    6.29370726
                ],
                "label": "Zr",
                "properties": {}
            },
            {
                "species": [
                    {
                        "element": "Ge",
                        "occu": 1
                    }
                ],
                "abc": [
                    0.68068692,
                    0.24560993,
                    0.12132884
                ],
                "xyz": [
                    4.255934901999735,
                    -1.2212386043973071,
                    1.5250363798963946
                ],
                "label": "Ge",
                "properties": {}
            },
            {
                "species": [
                    {
                        "element": "Ge",
                        "occu": 1
                    }
                ],
                "abc": [
                    0.24560993,
                    0.68068692,
                    0.62132884
                ],
                "xyz": [
                    2.555626756999735,
                    1.2212386043973071,
                    7.820097744896394
                ],
                "label": "Ge",
                "properties": {}
            },
            {
                "species": [
                    {
                        "element": "Ge",
                        "occu": 1
                    }
                ],
                "abc": [
                    0.31931308,
                    0.75439007,
                    0.87867116
                ],
                "xyz": [
                    2.4234306880002654,
                    1.2212386043973074,
                    11.059669930103606
                ],
                "label": "Ge",
                "properties": {}
            },
            {
                "species": [
                    {
                        "element": "Ge",
                        "occu": 1
                    }
                ],
                "abc": [
                    0.75439007,
                    0.31931308,
                    0.37867116
                ],
                "xyz": [
                    4.123738833000266,
                    -1.2212386043973074,
                    4.764608565103605
                ],
                "label": "Ge",
                "properties": {}
            },
            {
                "species": [
                    {
                        "element": "O",
                        "occu": 1
                    }
                ],
                "abc": [
                    0.07335735,
                    0.19132679,
                    0.46043911
                ],
                "xyz": [
                    -0.2317710704574103,
                    0.3311341155208688,
                    5.79626808435718
                ],
                "label": "O",
                "properties": {}
            },
            {
                "species": [
                    {
                        "element": "O",
                        "occu": 1
                    }
                ],
                "abc": [
                    0.56920592,
                    0.67749063,
                    0.37055854
                ],
                "xyz": [
                    5.0232119094066405,
                    0.30394957940195155,
                    4.662001181185937
                ],
                "label": "O",
                "properties": {}
            },
            {
                "species": [
                    {
                        "element": "O",
                        "occu": 1
                    }
                ],
                "abc": [
                    0.67749063,
                    0.56920592,
                    0.87055854
                ],
                "xyz": [
                    3.3229037644066404,
                    -0.30394957940195155,
                    10.957062546185938
                ],
                "label": "O",
                "properties": {}
            },
            {
                "species": [
                    {
                        "element": "O",
                        "occu": 1
                    }
                ],
                "abc": [
                    0.43079408,
                    0.32250937,
                    0.62944146
                ],
                "xyz": [
                    1.6561536805933597,
                    -0.30394957940195166,
                    7.922705128814061
                ],
                "label": "O",
                "properties": {}
            },
            {
                "species": [
                    {
                        "element": "O",
                        "occu": 1
                    }
                ],
                "abc": [
                    0.86448484,
                    0.13551516,
                    0.25
                ],
                "xyz": [
                    4.1898368675,
                    -2.0461801821584538,
                    3.1448224724999996
                ],
                "label": "O",
                "properties": {}
            },
            {
                "species": [
                    {
                        "element": "O",
                        "occu": 1
                    }
                ],
                "abc": [
                    0.13551516,
                    0.86448484,
                    0.75
                ],
                "xyz": [
                    2.4895287225000002,
                    2.0461801821584538,
                    9.4398838375
                ],
                "label": "O",
                "properties": {}
            },
            {
                "species": [
                    {
                        "element": "O",
                        "occu": 1
                    }
                ],
                "abc": [
                    0.47227277,
                    0.78288913,
                    0.60183809
                ],
                "xyz": [
                    4.2793841914367,
                    0.8718840543356974,
                    7.573816174679586
                ],
                "label": "O",
                "properties": {}
            },
            {
                "species": [
                    {
                        "element": "O",
                        "occu": 1
                    }
                ],
                "abc": [
                    0.21711087,
                    0.52772723,
                    0.89816191
                ],
                "xyz": [
                    0.6996732535633003,
                    0.871884054335697,
                    11.305951500320413
                ],
                "label": "O",
                "properties": {}
            },
            {
                "species": [
                    {
                        "element": "O",
                        "occu": 1
                    }
                ],
                "abc": [
                    0.80867321,
                    0.92664265,
                    0.03956089
                ],
                "xyz": [
                    8.61144480545741,
                    0.33113411552086847,
                    0.49337686064281905
                ],
                "label": "O",
                "properties": {}
            },
            {
                "species": [
                    {
                        "element": "O",
                        "occu": 1
                    }
                ],
                "abc": [
                    0.78288913,
                    0.47227277,
                    0.10183809
                ],
                "xyz": [
                    5.9796923364367,
                    -0.8718840543356974,
                    1.2787548096795867
                ],
                "label": "O",
                "properties": {}
            },
            {
                "species": [
                    {
                        "element": "O",
                        "occu": 1
                    }
                ],
                "abc": [
                    0.92664265,
                    0.80867321,
                    0.53956089
                ],
                "xyz": [
                    6.91113666045741,
                    -0.33113411552086847,
                    6.788438225642818
                ],
                "label": "O",
                "properties": {}
            },
            {
                "species": [
                    {
                        "element": "O",
                        "occu": 1
                    }
                ],
                "abc": [
                    0.19132679,
                    0.07335735,
                    0.96043911
                ],
                "xyz": [
                    -1.9320792154574105,
                    -0.3311341155208688,
                    12.09132944935718
                ],
                "label": "O",
                "properties": {}
            },
            {
                "species": [
                    {
                        "element": "O",
                        "occu": 1
                    }
                ],
                "abc": [
                    0.52772723,
                    0.21711087,
                    0.39816191
                ],
                "xyz": [
                    2.3999813985633,
                    -0.871884054335697,
                    5.0108901353204125
                ],
                "label": "O",
                "properties": {}
            },
            {
                "species": [
                    {
                        "element": "O",
                        "occu": 1
                    }
                ],
                "abc": [
                    0.32250937,
                    0.43079408,
                    0.12944146
                ],
                "xyz": [
                    3.35646182559336,
                    0.30394957940195166,
                    1.6276437638140613
                ],
                "label": "O",
                "properties": {}
            }
        ]
    },
    "spacegroup": {
        "source": "spglib",
        "symbol": "C2/c",
        "number": 15,
        "point_group": "2/m",
        "crystal_system": "monoclinic",
        "hall": "-C 2yc"
    },
    "dielectric": {
        "epsilon_ionic": [
            [
                8.95297311,
                0.0,
                1.2028233
            ],
            [
                0.0,
                6.51744172,
                -0.0
            ],
            [
                1.2028233,
                -0.0,
                9.65605744
            ]
        ],
        "epsilon_ionic_avg": 8.375490756666666,
        "epsilon_ionic_eig": [
            8.051372910862638,
            10.557657639137362,
            6.51744172
        ],
        "epsilon_electronic": [
            [
                3.46469272,
                0.0,
                0.00511275
            ],
            [
                0.0,
                3.4853956,
                0.0
            ],
            [
                0.00511222,
                0.0,
                3.21612385
            ]
        ],
        "epsilon_electronic_avg": 3.3887373899999997,
        "epsilon_electronic_eig": [
            3.464797827510913,
            3.2160187424890867,
            3.4853956
        ]
    },
    "phonon": {
        "lowest_freq": -0.11258754831126527,
        "frequency": [
            -0.11258754831126527,
            -0.04789593539896415,
            -0.04494248558681926,
            1.5779365554117744,
            1.8462900804569862,
            2.2549660086413796,
            2.2917673499169804,
            2.5023307804867243,
            2.6517907493785233,
            2.8954325990810874,
            3.026252989866302,
            3.0440015454545466,
            3.448394591468556,
            3.545743558832239,
            3.5997206321548196,
            3.747697830644408,
            3.8431814164480387,
            3.8861041145461384,
            3.9458979019277463,
            4.135494300854648,
            4.503026313620974,
            4.616653261477312,
            4.727562855231101,
            4.8152303547295086,
            5.314918865666161,
            5.733536303023862,
            5.810681619723488,
            5.862206948037105,
            6.222122051231017,
            6.582874641344826,
            7.160937181310227,
            7.18182907266687,
            7.334631833745247,
            7.339726737474144,
            7.362374172387645,
            7.440887108915519,
            7.907028185833144,
            7.9445050861467585,
            8.624814759062211,
            8.71441432262433,
            8.774663696106973,
            8.924434234057365,
            8.976856289895718,
            9.226078480574975,
            9.29162189409299,
            9.63077450367124,
            9.830862353351062,
            9.986491621175324,
            11.194248946945116,
            11.648894992078974,
            11.68146759690434,
            11.878768404711643,
            12.417348824515546,
            12.79708627949602,
            13.21663410131854,
            14.371297789610342,
            15.699011685654556,
            15.744950555625149,
            21.232191312896234,
            21.252324395119167,
            21.874095711747604,
            21.910977435684405,
            21.912654689165272,
            22.60008144837026,
            22.677431860866736,
            23.002746108307598,
            23.05050913220989,
            24.666628992762977,
            25.42805151775628,
            25.482574303753427,
            25.93194801395356,
            25.937970340455845
        ]
    },
    "born_effective_charge": {
        "avg_abs_trace": 2.463013611111111,
        "tensors": [
            [
                [
                    1.1694,
                    -0.0215,
                    -0.03366
                ],
                [
                    -0.00477,
                    1.20596,
                    0.03088
                ],
                [
                    -0.04423,
                    0.01228,
                    1.26496
                ]
            ],
            [
                [
                    1.16939,
                    0.02151,
                    -0.03366
                ],
                [
                    0.00477,
                    1.20596,
                    -0.03088
                ],
                [
                    -0.04421,
                    -0.01229,
                    1.26496
                ]
            ],
            [
                [
                    1.16939,
                    -0.02151,
                    -0.03366
                ],
                [
                    -0.00474,
                    1.20595,
                    0.03085
                ],
                [
                    -0.04421,
                    0.01229,
                    1.26496
                ]
            ],
            [
                [
                    1.1694,
                    0.0215,
                    -0.03366
                ],
                [
                    0.00474,
                    1.20595,
                    -0.03085
                ],
                [
                    -0.04423,
                    -0.01228,
                    1.26496
                ]
            ],
            [
                [
                    5.77048,
                    -0.02895,
                    -0.33792
                ],
                [
                    0.40439,
                    5.80821,
                    -0.94996
                ],
                [
                    0.16983,
                    0.61511,
                    4.41071
                ]
            ],
            [
                [
                    5.77048,
                    0.02895,
                    -0.33792
                ],
                [
                    -0.40439,
                    5.80821,
                    0.94996
                ],
                [
                    0.16983,
                    -0.61511,
                    4.41071
                ]
            ],
            [
                [
                    3.5866,
                    0.15657,
                    0.13523
                ],
                [
                    -0.0392,
                    3.51757,
                    0.42877
                ],
                [
                    -0.07187,
                    -0.48061,
                    3.4279
                ]
            ],
            [
                [
                    3.5866,
                    -0.15657,
                    0.13523
                ],
                [
                    0.03928,
                    3.51766,
                    -0.42882
                ],
                [
                    -0.07187,
                    0.48061,
                    3.4279
                ]
            ],
            [
                [
                    3.58661,
                    0.15657,
                    0.13524
                ],
                [
                    -0.03928,
                    3.51766,
                    0.42882
                ],
                [
                    -0.07186,
                    -0.48062,
                    3.4279
                ]
            ],
            [
                [
                    3.58661,
                    -0.15657,
                    0.13524
                ],
                [
                    0.0392,
                    3.51757,
                    -0.42877
                ],
                [
                    -0.07186,
                    0.48062,
                    3.4279
                ]
            ],
            [
                [
                    -1.90687,
                    1.0199,
                    -0.43399
                ],
                [
                    0.97835,
                    -2.94355,
                    0.66937
                ],
                [
                    -0.48603,
                    0.81022,
                    -1.65394
                ]
            ],
            [
                [
                    -1.85473,
                    -0.74213,
                    -0.46494
                ],
                [
                    -0.71599,
                    -2.4731,
                    -0.67704
                ],
                [
                    -0.37324,
                    -0.55193,
                    -1.92729
                ]
            ],
            [
                [
                    -1.85473,
                    0.74213,
                    -0.46494
                ],
                [
                    0.7161,
                    -2.47312,
                    0.67695
                ],
                [
                    -0.37324,
                    0.55193,
                    -1.92729
                ]
            ],
            [
                [
                    -1.85471,
                    -0.7421,
                    -0.46495
                ],
                [
                    -0.7161,
                    -2.47312,
                    -0.67695
                ],
                [
                    -0.37324,
                    -0.55186,
                    -1.92729
                ]
            ],
            [
                [
                    -1.28129,
                    1e-05,
                    0.07818
                ],
                [
                    0.0,
                    -1.46771,
                    -0.0
                ],
                [
                    0.15583,
                    -3e-05,
                    -3.13621
                ]
            ],
            [
                [
                    -1.28129,
                    -1e-05,
                    0.07818
                ],
                [
                    0.0,
                    -1.46769,
                    -0.0
                ],
                [
                    0.15583,
                    3e-05,
                    -3.13621
                ]
            ],
            [
                [
                    -3.23901,
                    -0.15034,
                    0.92726
                ],
                [
                    -0.08608,
                    -1.47714,
                    0.11427
                ],
                [
                    0.81253,
                    0.11926,
                    -1.74886
                ]
            ],
            [
                [
                    -3.23901,
                    0.15033,
                    0.92723
                ],
                [
                    0.08608,
                    -1.47714,
                    -0.11427
                ],
                [
                    0.81256,
                    -0.11923,
                    -1.74888
                ]
            ],
            [
                [
                    -1.90685,
                    -1.01991,
                    -0.43401
                ],
                [
                    -0.97835,
                    -2.94355,
                    -0.66937
                ],
                [
                    -0.48607,
                    -0.81028,
                    -1.65394
                ]
            ],
            [
                [
                    -3.23901,
                    0.15034,
                    0.92726
                ],
                [
                    0.08618,
                    -1.47711,
                    -0.11434
                ],
                [
                    0.81253,
                    -0.11926,
                    -1.74886
                ]
            ],
            [
                [
                    -1.90685,
                    1.01991,
                    -0.43401
                ],
                [
                    0.97844,
                    -2.94363,
                    0.66925
                ],
                [
                    -0.48607,
                    0.81028,
                    -1.65394
                ]
            ],
            [
                [
                    -1.90687,
                    -1.0199,
                    -0.43399
                ],
                [
                    -0.97844,
                    -2.94363,
                    -0.66925
                ],
                [
                    -0.48603,
                    -0.81022,
                    -1.65394
                ]
            ],
            [
                [
                    -3.23901,
                    -0.15033,
                    0.92723
                ],
                [
                    -0.08618,
                    -1.47711,
                    0.11434
                ],
                [
                    0.81256,
                    0.11923,
                    -1.74888
                ]
            ],
            [
                [
                    -1.85471,
                    0.7421,
                    -0.46495
                ],
                [
                    0.71599,
                    -2.4731,
                    0.67704
                ],
                [
                    -0.37324,
                    0.55186,
                    -1.92729
                ]
            ]
        ]
    },
    "band_gap": 3.7768,
    "is_direct": false,
    "formula": "K2ZrGe2O7"
}