{
    "mp_id": "mp-1191085",
    "nelements": 4,
    "nsites": 24,
    "elements": [
        "Li",
        "O",
        "W",
        "Y"
    ],
    "structure": {
        "@module": "pymatgen.core.structure",
        "@class": "Structure",
        "charge": null,
        "lattice": {
            "matrix": [
                [
                    4.99759745,
                    0.0,
                    -0.00173842
                ],
                [
                    0.0,
                    5.85173512,
                    0.0
                ],
                [
                    -4.43614336,
                    0.0,
                    9.90860605
                ]
            ],
            "a": 4.997597752355685,
            "b": 5.85173512,
            "c": 10.856327268674645,
            "alpha": 90.0,
            "beta": 114.13828394152343,
            "gamma": 90.0,
            "volume": 289.72825623741795
        },
        "sites": [
            {
                "species": [
                    {
                        "element": "Li",
                        "occu": 1
                    }
                ],
                "abc": [
                    0.5,
                    0.73886354,
                    0.75
                ],
                "xyz": [
                    -0.8283087950000003,
                    4.323633725905524,
                    7.430585327499999
                ],
                "label": "Li",
                "properties": {}
            },
            {
                "species": [
                    {
                        "element": "Li",
                        "occu": 1
                    }
                ],
                "abc": [
                    0.5,
                    0.26113646,
                    0.25
                ],
                "xyz": [
                    1.389762885,
                    1.5281013940944752,
                    2.4762823025
                ],
                "label": "Li",
                "properties": {}
            },
            {
                "species": [
                    {
                        "element": "Y",
                        "occu": 1
                    }
                ],
                "abc": [
                    0.0,
                    0.3206785,
                    0.75
                ],
                "xyz": [
                    -3.32710752,
                    1.87652564067892,
                    7.4314545375
                ],
                "label": "Y",
                "properties": {}
            },
            {
                "species": [
                    {
                        "element": "Y",
                        "occu": 1
                    }
                ],
                "abc": [
                    0.0,
                    0.6793215,
                    0.25
                ],
                "xyz": [
                    -1.10903584,
                    3.97520947932108,
                    2.4771515125
                ],
                "label": "Y",
                "properties": {}
            },
            {
                "species": [
                    {
                        "element": "W",
                        "occu": 1
                    }
                ],
                "abc": [
                    0.76518726,
                    0.82619075,
                    0.51368772
                ],
                "xyz": [
                    1.5453055311569477,
                    4.834649427594139,
                    5.088599033366176
                ],
                "label": "W",
                "properties": {}
            },
            {
                "species": [
                    {
                        "element": "W",
                        "occu": 1
                    }
                ],
                "abc": [
                    0.23481274,
                    0.17380925,
                    0.48631228
                ],
                "xyz": [
                    -0.9838514411569479,
                    1.01708569240586,
                    4.818268596633822
                ],
                "label": "W",
                "properties": {}
            },
            {
                "species": [
                    {
                        "element": "W",
                        "occu": 1
                    }
                ],
                "abc": [
                    0.23481274,
                    0.82619075,
                    0.98631228
                ],
                "xyz": [
                    -3.201923121156948,
                    4.834649427594139,
                    9.772571621633825
                ],
                "label": "W",
                "properties": {}
            },
            {
                "species": [
                    {
                        "element": "W",
                        "occu": 1
                    }
                ],
                "abc": [
                    0.76518726,
                    0.17380925,
                    0.01368772
                ],
                "xyz": [
                    3.7633772111569477,
                    1.01708569240586,
                    0.1342960083661768
                ],
                "label": "W",
                "properties": {}
            },
            {
                "species": [
                    {
                        "element": "O",
                        "occu": 1
                    }
                ],
                "abc": [
                    0.21793985,
                    0.37124963,
                    0.60971354
                ],
                "xyz": [
                    -1.615601033359712,
                    2.1724544981580056,
                    6.04103240021688
                ],
                "label": "O",
                "properties": {}
            },
            {
                "species": [
                    {
                        "element": "O",
                        "occu": 1
                    }
                ],
                "abc": [
                    0.78206015,
                    0.62875037,
                    0.39028646
                ],
                "xyz": [
                    2.1770551233597115,
                    3.6792806218419942,
                    3.86583522978312
                ],
                "label": "O",
                "properties": {}
            },
            {
                "species": [
                    {
                        "element": "O",
                        "occu": 1
                    }
                ],
                "abc": [
                    0.78206015,
                    0.37124963,
                    0.89028646
                ],
                "xyz": [
                    -0.04101655664028847,
                    2.1724544981580056,
                    8.820138254783119
                ],
                "label": "O",
                "properties": {}
            },
            {
                "species": [
                    {
                        "element": "O",
                        "occu": 1
                    }
                ],
                "abc": [
                    0.21793985,
                    0.62875037,
                    0.10971354
                ],
                "xyz": [
                    0.602470646640288,
                    3.6792806218419942,
                    1.0867293752168798
                ],
                "label": "O",
                "properties": {}
            },
            {
                "species": [
                    {
                        "element": "O",
                        "occu": 1
                    }
                ],
                "abc": [
                    0.73123226,
                    0.63535535,
                    0.6357367
                ],
                "xyz": [
                    0.8341853375204242,
                    3.717931215274892,
                    6.297993323041606
                ],
                "label": "O",
                "properties": {}
            },
            {
                "species": [
                    {
                        "element": "O",
                        "occu": 1
                    }
                ],
                "abc": [
                    0.26876774,
                    0.36464465,
                    0.3642633
                ],
                "xyz": [
                    -0.2727312475204253,
                    2.133803904725108,
                    3.6088743069583944
                ],
                "label": "O",
                "properties": {}
            },
            {
                "species": [
                    {
                        "element": "O",
                        "occu": 1
                    }
                ],
                "abc": [
                    0.26876774,
                    0.63535535,
                    0.8642633
                ],
                "xyz": [
                    -2.490802927520425,
                    3.717931215274892,
                    8.563177331958393
                ],
                "label": "O",
                "properties": {}
            },
            {
                "species": [
                    {
                        "element": "O",
                        "occu": 1
                    }
                ],
                "abc": [
                    0.73123226,
                    0.36464465,
                    0.1357367
                ],
                "xyz": [
                    3.0522570175204247,
                    2.133803904725108,
                    1.3436902980416057
                ],
                "label": "O",
                "properties": {}
            },
            {
                "species": [
                    {
                        "element": "O",
                        "occu": 1
                    }
                ],
                "abc": [
                    0.15678547,
                    0.91250649,
                    0.61113948
                ],
                "xyz": [
                    -1.9275516811668014,
                    5.339746274760929,
                    6.055267789925096
                ],
                "label": "O",
                "properties": {}
            },
            {
                "species": [
                    {
                        "element": "O",
                        "occu": 1
                    }
                ],
                "abc": [
                    0.84321453,
                    0.08749351,
                    0.38886052
                ],
                "xyz": [
                    2.489005771166801,
                    0.5119888452390712,
                    3.851599840074903
                ],
                "label": "O",
                "properties": {}
            },
            {
                "species": [
                    {
                        "element": "O",
                        "occu": 1
                    }
                ],
                "abc": [
                    0.84321453,
                    0.91250649,
                    0.88886052
                ],
                "xyz": [
                    0.2709340911668012,
                    5.339746274760929,
                    8.805902865074902
                ],
                "label": "O",
                "properties": {}
            },
            {
                "species": [
                    {
                        "element": "O",
                        "occu": 1
                    }
                ],
                "abc": [
                    0.15678547,
                    0.08749351,
                    0.11113948
                ],
                "xyz": [
                    0.2905199988331987,
                    0.5119888452390712,
                    1.1009647649250967
                ],
                "label": "O",
                "properties": {}
            },
            {
                "species": [
                    {
                        "element": "O",
                        "occu": 1
                    }
                ],
                "abc": [
                    0.65365447,
                    0.11025189,
                    0.59682323
                ],
                "xyz": [
                    0.6191085035948483,
                    0.6451648567593768,
                    5.912549941554804
                ],
                "label": "O",
                "properties": {}
            },
            {
                "species": [
                    {
                        "element": "O",
                        "occu": 1
                    }
                ],
                "abc": [
                    0.34634553,
                    0.88974811,
                    0.40317677
                ],
                "xyz": [
                    -0.05765441359484891,
                    5.206570263240623,
                    3.994317688445196
                ],
                "label": "O",
                "properties": {}
            },
            {
                "species": [
                    {
                        "element": "O",
                        "occu": 1
                    }
                ],
                "abc": [
                    0.34634553,
                    0.11025189,
                    0.90317677
                ],
                "xyz": [
                    -2.2757260935948485,
                    0.6451648567593768,
                    8.948620713445196
                ],
                "label": "O",
                "properties": {}
            },
            {
                "species": [
                    {
                        "element": "O",
                        "occu": 1
                    }
                ],
                "abc": [
                    0.65365447,
                    0.88974811,
                    0.09682323
                ],
                "xyz": [
                    2.8371801835948487,
                    5.206570263240623,
                    0.9582469165548041
                ],
                "label": "O",
                "properties": {}
            }
        ]
    },
    "spacegroup": {
        "source": "spglib",
        "symbol": "P2/c",
        "number": 13,
        "point_group": "2/m",
        "crystal_system": "monoclinic",
        "hall": "-P 2yc"
    },
    "dielectric": {
        "epsilon_ionic": [
            [
                11.89654052,
                1e-08,
                -1.56119661
            ],
            [
                1e-08,
                13.14675452,
                3e-08
            ],
            [
                -1.56119661,
                3e-08,
                15.31619002
            ]
        ],
        "epsilon_ionic_avg": 13.453161686666668,
        "epsilon_ionic_eig": [
            11.29101744930695,
            15.921713090693054,
            13.146754520000004
        ],
        "epsilon_electronic": [
            [
                4.63133199,
                0.0,
                -0.14748647
            ],
            [
                0.0,
                4.29696525,
                0.0
            ],
            [
                -0.14748538,
                0.0,
                4.28172934
            ]
        ],
        "epsilon_electronic_avg": 4.403342193333334,
        "epsilon_electronic_eig": [
            4.6852392159869805,
            4.227822114013019,
            4.29696525
        ]
    },
    "phonon": {
        "lowest_freq": -0.07163884282689997,
        "frequency": [
            -0.07163884282689997,
            -0.045028023464636184,
            -0.02562384222439365,
            0.9625056320425069,
            1.43694017108283,
            2.3129803260538013,
            2.7288556115388793,
            3.3170612460057765,
            3.318279526378136,
            3.627291986100643,
            3.900756743311127,
            4.405981079606137,
            4.482547614253774,
            4.564079891553546,
            4.6152313601693145,
            5.10159877259397,
            5.436039637239335,
            5.926658314985967,
            6.357150345539584,
            6.412128189431398,
            6.535678995722364,
            6.613088405129384,
            6.908629085554831,
            6.977538810750626,
            6.980253902252392,
            7.353849344280836,
            7.586405870735171,
            7.778219948440648,
            7.988396219383392,
            8.110192935228557,
            8.248694289655726,
            8.506033876086963,
            8.743460292712301,
            8.893786524555388,
            9.024566647328768,
            9.493319286288068,
            9.494947623680474,
            9.551630731293356,
            9.561931140227696,
            9.963959271357714,
            10.254143710899122,
            10.424905495563367,
            10.790884491584134,
            10.855013273062283,
            11.772532758011309,
            11.967098156621452,
            12.541107574049313,
            12.886374400319927,
            12.926946363081733,
            13.59639580590699,
            14.09493316861217,
            14.704709082883436,
            14.796149608571222,
            15.166794474137573,
            16.125881277360616,
            16.19900574981694,
            16.647207794913818,
            17.655434366580018,
            19.93940928206856,
            20.088820078488023,
            20.107377032397153,
            20.136197289325935,
            20.294572149466703,
            20.70470875323138,
            22.133027614633665,
            22.166138552550894,
            22.274426616967798,
            24.563187131971002,
            24.689432215744183,
            25.338848013247873,
            25.786042175809825,
            26.282444720297917
        ]
    },
    "born_effective_charge": {
        "avg_abs_trace": 2.8992198611111113,
        "tensors": [
            [
                [
                    1.41804,
                    0.0,
                    0.05352
                ],
                [
                    -0.0,
                    1.05667,
                    -0.0
                ],
                [
                    -0.06521,
                    -0.0,
                    1.61196
                ]
            ],
            [
                [
                    1.41804,
                    -0.0,
                    0.05352
                ],
                [
                    -0.0,
                    1.05671,
                    -0.0
                ],
                [
                    -0.06521,
                    0.0,
                    1.61196
                ]
            ],
            [
                [
                    3.76517,
                    -8e-05,
                    -0.33143
                ],
                [
                    -0.0,
                    4.41194,
                    -0.0
                ],
                [
                    -0.2193,
                    0.00019,
                    5.70456
                ]
            ],
            [
                [
                    3.76517,
                    8e-05,
                    -0.33143
                ],
                [
                    -0.0,
                    4.41219,
                    -0.0
                ],
                [
                    -0.2193,
                    -0.00019,
                    5.70456
                ]
            ],
            [
                [
                    6.7926,
                    -0.16126,
                    -0.41249
                ],
                [
                    0.45155,
                    5.55355,
                    -0.13691
                ],
                [
                    -0.30714,
                    0.30343,
                    4.76276
                ]
            ],
            [
                [
                    6.79249,
                    -0.16123,
                    -0.41254
                ],
                [
                    0.45139,
                    5.55335,
                    -0.13679
                ],
                [
                    -0.30717,
                    0.30347,
                    4.76273
                ]
            ],
            [
                [
                    6.79249,
                    0.16123,
                    -0.41254
                ],
                [
                    -0.45155,
                    5.55355,
                    0.13691
                ],
                [
                    -0.30717,
                    -0.30347,
                    4.76273
                ]
            ],
            [
                [
                    6.7926,
                    0.16126,
                    -0.41249
                ],
                [
                    -0.45139,
                    5.55335,
                    0.13679
                ],
                [
                    -0.30714,
                    -0.30343,
                    4.76276
                ]
            ],
            [
                [
                    -1.89149,
                    0.46675,
                    1.26871
                ],
                [
                    0.6149,
                    -1.92289,
                    -1.12301
                ],
                [
                    1.18925,
                    -0.95857,
                    -2.49323
                ]
            ],
            [
                [
                    -1.89146,
                    0.46658,
                    1.26865
                ],
                [
                    0.61523,
                    -1.9233,
                    -1.12365
                ],
                [
                    1.18938,
                    -0.95878,
                    -2.4934
                ]
            ],
            [
                [
                    -1.89146,
                    -0.46658,
                    1.26865
                ],
                [
                    -0.6149,
                    -1.92289,
                    1.12301
                ],
                [
                    1.18938,
                    0.95878,
                    -2.4934
                ]
            ],
            [
                [
                    -1.89149,
                    -0.46675,
                    1.26871
                ],
                [
                    -0.61523,
                    -1.9233,
                    1.12365
                ],
                [
                    1.18925,
                    0.95857,
                    -2.49323
                ]
            ],
            [
                [
                    -1.41292,
                    -0.35899,
                    0.66367
                ],
                [
                    -0.48095,
                    -2.67009,
                    1.59988
                ],
                [
                    0.49407,
                    1.42989,
                    -2.32654
                ]
            ],
            [
                [
                    -1.41299,
                    -0.35888,
                    0.66362
                ],
                [
                    -0.48091,
                    -2.67045,
                    1.59983
                ],
                [
                    0.49402,
                    1.42981,
                    -2.32646
                ]
            ],
            [
                [
                    -1.41299,
                    0.35888,
                    0.66362
                ],
                [
                    0.48095,
                    -2.67009,
                    -1.59988
                ],
                [
                    0.49402,
                    -1.42981,
                    -2.32646
                ]
            ],
            [
                [
                    -1.41292,
                    0.35899,
                    0.66367
                ],
                [
                    0.48091,
                    -2.67045,
                    -1.59983
                ],
                [
                    0.49407,
                    -1.42989,
                    -2.32654
                ]
            ],
            [
                [
                    -2.87953,
                    -1.03223,
                    -0.44564
                ],
                [
                    -0.90682,
                    -1.64464,
                    0.0427
                ],
                [
                    -0.41705,
                    0.04152,
                    -1.54766
                ]
            ],
            [
                [
                    -2.87945,
                    -1.03227,
                    -0.4456
                ],
                [
                    -0.90689,
                    -1.64487,
                    0.04268
                ],
                [
                    -0.41698,
                    0.04141,
                    -1.54764
                ]
            ],
            [
                [
                    -2.87945,
                    1.03227,
                    -0.4456
                ],
                [
                    0.90682,
                    -1.64464,
                    -0.0427
                ],
                [
                    -0.41698,
                    -0.04141,
                    -1.54764
                ]
            ],
            [
                [
                    -2.87953,
                    1.03223,
                    -0.44564
                ],
                [
                    0.90689,
                    -1.64487,
                    -0.04268
                ],
                [
                    -0.41705,
                    -0.04152,
                    -1.54766
                ]
            ],
            [
                [
                    -3.20025,
                    0.82797,
                    -0.93518
                ],
                [
                    0.47976,
                    -2.04977,
                    -0.57998
                ],
                [
                    -0.81695,
                    -0.74095,
                    -2.05348
                ]
            ],
            [
                [
                    -3.20021,
                    0.82783,
                    -0.93528
                ],
                [
                    0.47974,
                    -2.04963,
                    -0.58012
                ],
                [
                    -0.81692,
                    -0.7408,
                    -2.0536
                ]
            ],
            [
                [
                    -3.20021,
                    -0.82783,
                    -0.93528
                ],
                [
                    -0.47976,
                    -2.04977,
                    0.57998
                ],
                [
                    -0.81692,
                    0.7408,
                    -2.0536
                ]
            ],
            [
                [
                    -3.20025,
                    -0.82797,
                    -0.93518
                ],
                [
                    -0.47974,
                    -2.04963,
                    0.58012
                ],
                [
                    -0.81695,
                    0.74095,
                    -2.05348
                ]
            ]
        ]
    },
    "band_gap": 3.6748999999999996,
    "is_direct": false,
    "formula": "LiY(WO4)2"
}