{
    "mp_id": "mp-18889",
    "nelements": 3,
    "nsites": 16,
    "elements": [
        "Ag",
        "O",
        "V"
    ],
    "structure": {
        "@module": "pymatgen.core.structure",
        "@class": "Structure",
        "charge": null,
        "lattice": {
            "matrix": [
                [
                    5.02291426,
                    -2.44430969,
                    -0.00013148
                ],
                [
                    5.02291426,
                    2.44430969,
                    -0.00013148
                ],
                [
                    -4.36664807,
                    0.0,
                    9.14951415
                ]
            ],
            "a": 5.586082486074318,
            "b": 5.586082486074318,
            "c": 10.138107542746079,
            "alpha": 112.7874904884318,
            "beta": 112.7874904884318,
            "gamma": 51.8980529872323,
            "volume": 224.6645745680175
        },
        "sites": [
            {
                "species": [
                    {
                        "element": "V",
                        "occu": 1
                    }
                ],
                "abc": [
                    0.46726988,
                    0.53273012,
                    0.75
                ],
                "xyz": [
                    1.7479282075000002,
                    0.16000509894172543,
                    6.862004132499999
                ],
                "label": "V",
                "properties": {}
            },
            {
                "species": [
                    {
                        "element": "V",
                        "occu": 1
                    }
                ],
                "abc": [
                    0.53273012,
                    0.46726988,
                    0.25
                ],
                "xyz": [
                    3.9312522425000003,
                    -0.16000509894172543,
                    2.2872470575
                ],
                "label": "V",
                "properties": {}
            },
            {
                "species": [
                    {
                        "element": "Ag",
                        "occu": 1
                    }
                ],
                "abc": [
                    0.30515744,
                    0.2195052,
                    0.90539029
                ],
                "xyz": [
                    -1.318185306279994,
                    -0.2093606002022056,
                    8.283812286983697
                ],
                "label": "Ag",
                "properties": {}
            },
            {
                "species": [
                    {
                        "element": "Ag",
                        "occu": 1
                    }
                ],
                "abc": [
                    0.2195052,
                    0.30515744,
                    0.40539029
                ],
                "xyz": [
                    0.8651387287200061,
                    0.2093606002022056,
                    3.709055211983696
                ],
                "label": "Ag",
                "properties": {}
            },
            {
                "species": [
                    {
                        "element": "Ag",
                        "occu": 1
                    }
                ],
                "abc": [
                    0.69484256,
                    0.7804948,
                    0.09460971
                ],
                "xyz": [
                    6.9973657562799945,
                    0.2093606002022057,
                    0.8654389030163037
                ],
                "label": "Ag",
                "properties": {}
            },
            {
                "species": [
                    {
                        "element": "Ag",
                        "occu": 1
                    }
                ],
                "abc": [
                    0.7804948,
                    0.69484256,
                    0.59460971
                ],
                "xyz": [
                    4.814041721279994,
                    -0.2093606002022057,
                    5.440195978016304
                ],
                "label": "Ag",
                "properties": {}
            },
            {
                "species": [
                    {
                        "element": "Ag",
                        "occu": 1
                    }
                ],
                "abc": [
                    0.0,
                    0.0,
                    0.0
                ],
                "xyz": [
                    0.0,
                    0.0,
                    0.0
                ],
                "label": "Ag",
                "properties": {}
            },
            {
                "species": [
                    {
                        "element": "Ag",
                        "occu": 1
                    }
                ],
                "abc": [
                    0.0,
                    0.0,
                    0.5
                ],
                "xyz": [
                    -2.183324035,
                    0.0,
                    4.574757075
                ],
                "label": "Ag",
                "properties": {}
            },
            {
                "species": [
                    {
                        "element": "O",
                        "occu": 1
                    }
                ],
                "abc": [
                    0.85898066,
                    0.38782652,
                    0.21385221
                ],
                "xyz": [
                    5.328788223830652,
                    -1.1516466298856165,
                    1.956479891195745
                ],
                "label": "O",
                "properties": {}
            },
            {
                "species": [
                    {
                        "element": "O",
                        "occu": 1
                    }
                ],
                "abc": [
                    0.61217348,
                    0.14101934,
                    0.28614779
                ],
                "xyz": [
                    2.5337162611693484,
                    -1.1516466298856167,
                    2.618014223804255
                ],
                "label": "O",
                "properties": {}
            },
            {
                "species": [
                    {
                        "element": "O",
                        "occu": 1
                    }
                ],
                "abc": [
                    0.14101934,
                    0.61217348,
                    0.78614779
                ],
                "xyz": [
                    0.3503922261693484,
                    1.1516466298856167,
                    7.192771298804255
                ],
                "label": "O",
                "properties": {}
            },
            {
                "species": [
                    {
                        "element": "O",
                        "occu": 1
                    }
                ],
                "abc": [
                    0.38782652,
                    0.85898066,
                    0.71385221
                ],
                "xyz": [
                    3.145464188830652,
                    1.1516466298856165,
                    6.531236966195745
                ],
                "label": "O",
                "properties": {}
            },
            {
                "species": [
                    {
                        "element": "O",
                        "occu": 1
                    }
                ],
                "abc": [
                    0.76900125,
                    0.41591291,
                    0.90057465
                ],
                "xyz": [
                    2.0192296738264957,
                    -0.8630572508880145,
                    8.23966471079254
                ],
                "label": "O",
                "properties": {}
            },
            {
                "species": [
                    {
                        "element": "O",
                        "occu": 1
                    }
                ],
                "abc": [
                    0.23099875,
                    0.58408709,
                    0.09942535
                ],
                "xyz": [
                    3.6599507761735044,
                    0.8630572508880145,
                    0.9095864792074593
                ],
                "label": "O",
                "properties": {}
            },
            {
                "species": [
                    {
                        "element": "O",
                        "occu": 1
                    }
                ],
                "abc": [
                    0.58408709,
                    0.23099875,
                    0.59942535
                ],
                "xyz": [
                    1.4766267411735048,
                    -0.8630572508880145,
                    5.484343554207459
                ],
                "label": "O",
                "properties": {}
            },
            {
                "species": [
                    {
                        "element": "O",
                        "occu": 1
                    }
                ],
                "abc": [
                    0.41591291,
                    0.76900125,
                    0.40057465
                ],
                "xyz": [
                    4.202553708826496,
                    0.8630572508880145,
                    3.6649076357925403
                ],
                "label": "O",
                "properties": {}
            }
        ]
    },
    "spacegroup": {
        "source": "spglib",
        "symbol": "C2/c",
        "number": 15,
        "point_group": "2/m",
        "crystal_system": "monoclinic",
        "hall": "-C 2yc"
    },
    "dielectric": {
        "epsilon_ionic": [
            [
                5.99935832,
                3e-08,
                0.11544112
            ],
            [
                3e-08,
                4.14229358,
                -7e-08
            ],
            [
                0.11544112,
                -7e-08,
                4.0007025
            ]
        ],
        "epsilon_ionic_avg": 4.714118133333334,
        "epsilon_ionic_eig": [
            6.006004029878685,
            3.9940567901212822,
            4.142293580000034
        ],
        "epsilon_electronic": [
            [
                5.24214156,
                0.0,
                0.12768068
            ],
            [
                0.0,
                5.34029555,
                0.0
            ],
            [
                0.12767904,
                0.0,
                5.98850121
            ]
        ],
        "epsilon_electronic_avg": 5.523646106666667,
        "epsilon_electronic_eig": [
            5.220903676934075,
            6.009739093065925,
            5.34029555
        ]
    },
    "phonon": {
        "lowest_freq": -0.04163529272244033,
        "frequency": [
            -0.04163529272244033,
            -0.030035743753901094,
            -0.02234472197135844,
            0.9847848740973072,
            1.0894374813742644,
            1.507421283183941,
            1.7041982473607904,
            1.7212587394499934,
            1.8489366358998724,
            2.0313746527822314,
            2.176256112615256,
            2.2425654201064678,
            2.4469542431993268,
            2.834450825716673,
            2.849130431151032,
            2.966438667123129,
            3.178459616775632,
            3.358029557780435,
            3.4888464422401664,
            4.019650479420801,
            4.105859124303637,
            5.289454323746993,
            5.934266273021152,
            6.200737259871579,
            6.235065371423039,
            6.447003781576368,
            6.7657801433515825,
            6.807381545103152,
            7.961157652794124,
            8.22409637160883,
            9.125868865505701,
            9.37385279356096,
            9.376087699732985,
            9.384848082492493,
            10.464245384112886,
            10.913448791211168,
            12.083764335531507,
            12.182629573583514,
            12.205636165971498,
            12.286426647227707,
            21.455392048782027,
            21.644219334299297,
            21.846401444530816,
            22.161270057711835,
            22.27103862844139,
            22.54893098173662,
            22.649909217332652,
            24.33164747748178
        ]
    },
    "born_effective_charge": {
        "avg_abs_trace": 1.877545625,
        "tensors": [
            [
                [
                    3.79406,
                    -0.00019,
                    0.06676
                ],
                [
                    -0.0,
                    3.43703,
                    0.0
                ],
                [
                    0.36001,
                    0.00017,
                    4.34898
                ]
            ],
            [
                [
                    3.79406,
                    0.00019,
                    0.06676
                ],
                [
                    0.0,
                    3.43702,
                    0.0
                ],
                [
                    0.36001,
                    -0.00017,
                    4.34898
                ]
            ],
            [
                [
                    1.14706,
                    0.18703,
                    0.02856
                ],
                [
                    -0.01382,
                    1.13691,
                    0.22722
                ],
                [
                    0.13426,
                    0.05994,
                    1.21688
                ]
            ],
            [
                [
                    1.14706,
                    -0.18703,
                    0.02856
                ],
                [
                    0.01368,
                    1.13707,
                    -0.22707
                ],
                [
                    0.13426,
                    -0.05994,
                    1.21688
                ]
            ],
            [
                [
                    1.14711,
                    0.18701,
                    0.02854
                ],
                [
                    -0.01368,
                    1.13707,
                    0.22707
                ],
                [
                    0.13423,
                    0.05991,
                    1.21692
                ]
            ],
            [
                [
                    1.14711,
                    -0.18701,
                    0.02854
                ],
                [
                    0.01382,
                    1.13691,
                    -0.22722
                ],
                [
                    0.13423,
                    -0.05991,
                    1.21692
                ]
            ],
            [
                [
                    0.97305,
                    0.15275,
                    -0.26081
                ],
                [
                    0.36973,
                    1.47857,
                    0.22996
                ],
                [
                    -0.23961,
                    0.04091,
                    1.49692
                ]
            ],
            [
                [
                    0.97305,
                    -0.15275,
                    -0.26081
                ],
                [
                    -0.36973,
                    1.47857,
                    -0.22996
                ],
                [
                    -0.23961,
                    -0.04091,
                    1.49692
                ]
            ],
            [
                [
                    -2.50873,
                    0.9772,
                    0.3973
                ],
                [
                    0.95677,
                    -1.65157,
                    -0.22206
                ],
                [
                    0.2211,
                    -0.02336,
                    -1.35025
                ]
            ],
            [
                [
                    -2.50885,
                    -0.97724,
                    0.3971
                ],
                [
                    -0.95677,
                    -1.65157,
                    0.22206
                ],
                [
                    0.22127,
                    0.02334,
                    -1.34999
                ]
            ],
            [
                [
                    -2.50885,
                    0.97724,
                    0.3971
                ],
                [
                    0.95675,
                    -1.65181,
                    -0.22241
                ],
                [
                    0.22127,
                    -0.02334,
                    -1.34999
                ]
            ],
            [
                [
                    -2.50873,
                    -0.9772,
                    0.3973
                ],
                [
                    -0.95675,
                    -1.65181,
                    0.22241
                ],
                [
                    0.2211,
                    0.02336,
                    -1.35025
                ]
            ],
            [
                [
                    -1.02185,
                    0.22285,
                    -0.32878
                ],
                [
                    0.24278,
                    -1.94313,
                    0.88713
                ],
                [
                    -0.41545,
                    1.51071,
                    -2.78963
                ]
            ],
            [
                [
                    -1.02184,
                    0.22265,
                    -0.32867
                ],
                [
                    0.24255,
                    -1.94306,
                    0.88733
                ],
                [
                    -0.4158,
                    1.51099,
                    -2.78983
                ]
            ],
            [
                [
                    -1.02184,
                    -0.22265,
                    -0.32867
                ],
                [
                    -0.24278,
                    -1.94313,
                    -0.88713
                ],
                [
                    -0.4158,
                    -1.51099,
                    -2.78983
                ]
            ],
            [
                [
                    -1.02185,
                    -0.22285,
                    -0.32878
                ],
                [
                    -0.24255,
                    -1.94306,
                    -0.88733
                ],
                [
                    -0.41545,
                    -1.51071,
                    -2.78963
                ]
            ]
        ]
    },
    "band_gap": 1.2464,
    "is_direct": false,
    "formula": "VAg3O4"
}