{
    "mp_id": "mp-18301",
    "nelements": 3,
    "nsites": 24,
    "elements": [
        "Mn",
        "O",
        "Rb"
    ],
    "structure": {
        "@module": "pymatgen.core.structure",
        "@class": "Structure",
        "charge": null,
        "lattice": {
            "matrix": [
                [
                    9.50890235,
                    0.0,
                    0.0
                ],
                [
                    0.0,
                    5.64356636,
                    0.0
                ],
                [
                    0.0,
                    0.0,
                    7.6207692
                ]
            ],
            "a": 9.50890235,
            "b": 5.64356636,
            "c": 7.6207692,
            "alpha": 90.0,
            "beta": 90.0,
            "gamma": 90.0,
            "volume": 408.9618836853439
        },
        "sites": [
            {
                "species": [
                    {
                        "element": "Rb",
                        "occu": 1
                    }
                ],
                "abc": [
                    0.31274524,
                    0.75,
                    0.84657757
                ],
                "xyz": [
                    2.9738639475873136,
                    4.23267477,
                    6.451572270866844
                ],
                "label": "Rb",
                "properties": {}
            },
            {
                "species": [
                    {
                        "element": "Rb",
                        "occu": 1
                    }
                ],
                "abc": [
                    0.68725476,
                    0.25,
                    0.15342243
                ],
                "xyz": [
                    6.5350384024126855,
                    1.41089159,
                    1.1691969291331559
                ],
                "label": "Rb",
                "properties": {}
            },
            {
                "species": [
                    {
                        "element": "Rb",
                        "occu": 1
                    }
                ],
                "abc": [
                    0.18725476,
                    0.25,
                    0.34657757
                ],
                "xyz": [
                    1.780587227412686,
                    1.41089159,
                    2.641187670866844
                ],
                "label": "Rb",
                "properties": {}
            },
            {
                "species": [
                    {
                        "element": "Rb",
                        "occu": 1
                    }
                ],
                "abc": [
                    0.81274524,
                    0.75,
                    0.65342243
                ],
                "xyz": [
                    7.728315122587314,
                    4.23267477,
                    4.9795815291331555
                ],
                "label": "Rb",
                "properties": {}
            },
            {
                "species": [
                    {
                        "element": "Mn",
                        "occu": 1
                    }
                ],
                "abc": [
                    0.44706495,
                    0.75,
                    0.29657828
                ],
                "xyz": [
                    4.251096953657632,
                    4.23267477,
                    2.260154621612976
                ],
                "label": "Mn",
                "properties": {}
            },
            {
                "species": [
                    {
                        "element": "Mn",
                        "occu": 1
                    }
                ],
                "abc": [
                    0.55293505,
                    0.25,
                    0.70342172
                ],
                "xyz": [
                    5.257805396342367,
                    1.41089159,
                    5.3606145783870245
                ],
                "label": "Mn",
                "properties": {}
            },
            {
                "species": [
                    {
                        "element": "Mn",
                        "occu": 1
                    }
                ],
                "abc": [
                    0.05293505,
                    0.25,
                    0.79657828
                ],
                "xyz": [
                    0.5033542213423674,
                    1.41089159,
                    6.070539221612975
                ],
                "label": "Mn",
                "properties": {}
            },
            {
                "species": [
                    {
                        "element": "Mn",
                        "occu": 1
                    }
                ],
                "abc": [
                    0.94706495,
                    0.75,
                    0.20342172
                ],
                "xyz": [
                    9.005548128657633,
                    4.23267477,
                    1.550229978387024
                ],
                "label": "Mn",
                "properties": {}
            },
            {
                "species": [
                    {
                        "element": "O",
                        "occu": 1
                    }
                ],
                "abc": [
                    0.58127558,
                    0.01717493,
                    0.82125741
                ],
                "xyz": [
                    5.527292728659613,
                    0.09692785718335481,
                    6.258613175399772
                ],
                "label": "O",
                "properties": {}
            },
            {
                "species": [
                    {
                        "element": "O",
                        "occu": 1
                    }
                ],
                "abc": [
                    0.41872442,
                    0.51717493,
                    0.17874259
                ],
                "xyz": [
                    3.981609621340387,
                    2.918711037183355,
                    1.362156024600228
                ],
                "label": "O",
                "properties": {}
            },
            {
                "species": [
                    {
                        "element": "O",
                        "occu": 1
                    }
                ],
                "abc": [
                    0.91872442,
                    0.98282507,
                    0.32125741
                ],
                "xyz": [
                    8.736060796340386,
                    5.546638502816645,
                    2.448228575399772
                ],
                "label": "O",
                "properties": {}
            },
            {
                "species": [
                    {
                        "element": "O",
                        "occu": 1
                    }
                ],
                "abc": [
                    0.08127558,
                    0.48282507,
                    0.67874259
                ],
                "xyz": [
                    0.7728415536596129,
                    2.7248553228166457,
                    5.172540624600228
                ],
                "label": "O",
                "properties": {}
            },
            {
                "species": [
                    {
                        "element": "O",
                        "occu": 1
                    }
                ],
                "abc": [
                    0.41872442,
                    0.98282507,
                    0.17874259
                ],
                "xyz": [
                    3.981609621340387,
                    5.546638502816645,
                    1.362156024600228
                ],
                "label": "O",
                "properties": {}
            },
            {
                "species": [
                    {
                        "element": "O",
                        "occu": 1
                    }
                ],
                "abc": [
                    0.58127558,
                    0.48282507,
                    0.82125741
                ],
                "xyz": [
                    5.527292728659613,
                    2.7248553228166457,
                    6.258613175399772
                ],
                "label": "O",
                "properties": {}
            },
            {
                "species": [
                    {
                        "element": "O",
                        "occu": 1
                    }
                ],
                "abc": [
                    0.08127558,
                    0.01717493,
                    0.67874259
                ],
                "xyz": [
                    0.7728415536596129,
                    0.09692785718335481,
                    5.172540624600228
                ],
                "label": "O",
                "properties": {}
            },
            {
                "species": [
                    {
                        "element": "O",
                        "occu": 1
                    }
                ],
                "abc": [
                    0.91872442,
                    0.51717493,
                    0.32125741
                ],
                "xyz": [
                    8.736060796340386,
                    2.918711037183355,
                    2.448228575399772
                ],
                "label": "O",
                "properties": {}
            },
            {
                "species": [
                    {
                        "element": "O",
                        "occu": 1
                    }
                ],
                "abc": [
                    0.84184698,
                    0.75,
                    0.03832635
                ],
                "xyz": [
                    8.005040726462402,
                    4.23267477,
                    0.29207626762842
                ],
                "label": "O",
                "properties": {}
            },
            {
                "species": [
                    {
                        "element": "O",
                        "occu": 1
                    }
                ],
                "abc": [
                    0.15815302,
                    0.25,
                    0.96167365
                ],
                "xyz": [
                    1.503861623537597,
                    1.41089159,
                    7.32869293237158
                ],
                "label": "O",
                "properties": {}
            },
            {
                "species": [
                    {
                        "element": "O",
                        "occu": 1
                    }
                ],
                "abc": [
                    0.65815302,
                    0.25,
                    0.53832635
                ],
                "xyz": [
                    6.258312798537596,
                    1.41089159,
                    4.1024608676284195
                ],
                "label": "O",
                "properties": {}
            },
            {
                "species": [
                    {
                        "element": "O",
                        "occu": 1
                    }
                ],
                "abc": [
                    0.34184698,
                    0.75,
                    0.46167365
                ],
                "xyz": [
                    3.250589551462403,
                    4.23267477,
                    3.51830833237158
                ],
                "label": "O",
                "properties": {}
            },
            {
                "species": [
                    {
                        "element": "O",
                        "occu": 1
                    }
                ],
                "abc": [
                    0.6079912,
                    0.75,
                    0.36134393
                ],
                "xyz": [
                    5.7813289504593195,
                    4.23267477,
                    2.753718692350956
                ],
                "label": "O",
                "properties": {}
            },
            {
                "species": [
                    {
                        "element": "O",
                        "occu": 1
                    }
                ],
                "abc": [
                    0.8920088,
                    0.25,
                    0.86134393
                ],
                "xyz": [
                    8.48202457454068,
                    1.41089159,
                    6.564103292350955
                ],
                "label": "O",
                "properties": {}
            },
            {
                "species": [
                    {
                        "element": "O",
                        "occu": 1
                    }
                ],
                "abc": [
                    0.3920088,
                    0.25,
                    0.63865607
                ],
                "xyz": [
                    3.7275733995406797,
                    1.41089159,
                    4.8670505076490445
                ],
                "label": "O",
                "properties": {}
            },
            {
                "species": [
                    {
                        "element": "O",
                        "occu": 1
                    }
                ],
                "abc": [
                    0.1079912,
                    0.75,
                    0.13865607
                ],
                "xyz": [
                    1.02687777545932,
                    4.23267477,
                    1.056665907649044
                ],
                "label": "O",
                "properties": {}
            }
        ]
    },
    "spacegroup": {
        "source": "spglib",
        "symbol": "Pnma",
        "number": 62,
        "point_group": "mmm",
        "crystal_system": "orthorhombic",
        "hall": "-P 2ac 2n"
    },
    "dielectric": {
        "epsilon_ionic": [
            [
                3.58112805,
                -9.17e-06,
                -3.7e-07
            ],
            [
                -9.17e-06,
                10.58425332,
                1.42e-06
            ],
            [
                -3.7e-07,
                1.42e-06,
                2.41819541
            ]
        ],
        "epsilon_ionic_avg": 5.527858926666666,
        "epsilon_ionic_eig": [
            3.581128049988111,
            10.584253320012252,
            2.418195409999635
        ],
        "epsilon_electronic": [
            [
                2.89374886,
                0.0,
                0.0
            ],
            [
                0.0,
                2.99125506,
                0.0
            ],
            [
                0.0,
                0.0,
                2.93971529
            ]
        ],
        "epsilon_electronic_avg": 2.94157307,
        "epsilon_electronic_eig": [
            2.89374886,
            2.99125506,
            2.93971529
        ]
    },
    "phonon": {
        "lowest_freq": -0.08597163251448656,
        "frequency": [
            -0.08597163251448656,
            -0.07314701205051756,
            -0.06513591630378553,
            0.9567703232993385,
            1.041225836618152,
            1.123521567986519,
            1.2216829282521278,
            1.442017989953194,
            1.4438694829055332,
            1.4757232096621178,
            1.5031020352682676,
            1.5820695392832036,
            1.9299604354125082,
            2.072482577056578,
            2.1138418055825987,
            2.239648020199964,
            2.3078209077941754,
            2.365597175481903,
            2.41583086063709,
            2.4634795233706783,
            2.653769665410953,
            2.816363184811894,
            2.8304953154309285,
            2.85868096444923,
            2.85914525759919,
            2.926054619463156,
            2.980045176394494,
            3.0746224737354555,
            3.1651965386544583,
            3.2709231926635525,
            3.272956471830815,
            3.3096217661544673,
            3.4291256763681472,
            3.4724709018496123,
            3.4963126699390594,
            3.570223522166854,
            10.718469409404012,
            10.778866358709257,
            10.803826361997668,
            10.892797628168443,
            10.90425835813534,
            10.926542622923547,
            10.93105648251894,
            11.0282405756858,
            11.885858752474897,
            11.927987402360344,
            11.938951193634141,
            11.9902378735835,
            12.078202146180313,
            12.112716216644664,
            12.174759527418626,
            12.227407364511656,
            12.245954277172357,
            12.314095145650104,
            12.337554055366796,
            12.38007063400735,
            27.25448140228166,
            27.26319527485314,
            27.277178415607395,
            27.287896442917017,
            28.893213515099557,
            28.904874450991066,
            29.174560961465613,
            29.257824306576804,
            29.281802266686352,
            29.287136770693834,
            29.315821058419218,
            29.60278624050625,
            29.676033898282007,
            29.906370291827375,
            30.115499031391476,
            30.539928908516657
        ]
    },
    "born_effective_charge": {
        "avg_abs_trace": 1.1761350000000002,
        "tensors": [
            [
                [
                    1.39822,
                    0.0,
                    -0.20641
                ],
                [
                    2e-05,
                    1.29022,
                    2e-05
                ],
                [
                    -0.14572,
                    -0.0,
                    1.35425
                ]
            ],
            [
                [
                    1.39818,
                    0.0,
                    -0.20652
                ],
                [
                    -2e-05,
                    1.29022,
                    -2e-05
                ],
                [
                    -0.14594,
                    -0.0,
                    1.3543
                ]
            ],
            [
                [
                    1.39818,
                    0.0,
                    0.20652
                ],
                [
                    -2e-05,
                    1.29022,
                    2e-05
                ],
                [
                    0.14572,
                    -0.0,
                    1.35425
                ]
            ],
            [
                [
                    1.39822,
                    0.0,
                    0.20641
                ],
                [
                    2e-05,
                    1.29022,
                    -2e-05
                ],
                [
                    0.14594,
                    -0.0,
                    1.3543
                ]
            ],
            [
                [
                    2.09598,
                    0.0,
                    0.2183
                ],
                [
                    -0.00029,
                    2.25827,
                    7e-05
                ],
                [
                    0.04794,
                    -0.0,
                    2.18808
                ]
            ],
            [
                [
                    2.09588,
                    0.0,
                    0.21784
                ],
                [
                    0.00029,
                    2.25827,
                    -7e-05
                ],
                [
                    0.04859,
                    -0.0,
                    2.18858
                ]
            ],
            [
                [
                    2.09588,
                    0.0,
                    -0.21784
                ],
                [
                    0.00029,
                    2.25827,
                    7e-05
                ],
                [
                    -0.04794,
                    -0.0,
                    2.18808
                ]
            ],
            [
                [
                    2.09598,
                    0.0,
                    -0.2183
                ],
                [
                    -0.00029,
                    2.25827,
                    -7e-05
                ],
                [
                    -0.04859,
                    -0.0,
                    2.18858
                ]
            ],
            [
                [
                    -0.49643,
                    0.22729,
                    -0.20027
                ],
                [
                    0.1896,
                    -1.45857,
                    0.73001
                ],
                [
                    -0.14015,
                    0.67009,
                    -0.86717
                ]
            ],
            [
                [
                    -0.49682,
                    -0.22918,
                    -0.20155
                ],
                [
                    -0.1896,
                    -1.45857,
                    -0.73001
                ],
                [
                    -0.1396,
                    -0.6693,
                    -0.86668
                ]
            ],
            [
                [
                    -0.49682,
                    0.22918,
                    0.20155
                ],
                [
                    0.19008,
                    -1.46318,
                    -0.73186
                ],
                [
                    0.14015,
                    -0.67009,
                    -0.86717
                ]
            ],
            [
                [
                    -0.49643,
                    -0.22729,
                    0.20027
                ],
                [
                    -0.19008,
                    -1.46318,
                    0.73186
                ],
                [
                    0.1396,
                    0.6693,
                    -0.86668
                ]
            ],
            [
                [
                    -0.49682,
                    0.22918,
                    -0.20155
                ],
                [
                    0.19008,
                    -1.46318,
                    0.73186
                ],
                [
                    -0.1396,
                    0.6693,
                    -0.86668
                ]
            ],
            [
                [
                    -0.49643,
                    -0.22729,
                    -0.20027
                ],
                [
                    -0.19008,
                    -1.46318,
                    -0.73186
                ],
                [
                    -0.14015,
                    -0.67009,
                    -0.86717
                ]
            ],
            [
                [
                    -0.49643,
                    0.22729,
                    0.20027
                ],
                [
                    0.1896,
                    -1.45857,
                    -0.73001
                ],
                [
                    0.1396,
                    -0.6693,
                    -0.86668
                ]
            ],
            [
                [
                    -0.49682,
                    -0.22918,
                    0.20155
                ],
                [
                    -0.1896,
                    -1.45857,
                    0.73001
                ],
                [
                    0.14015,
                    0.67009,
                    -0.86717
                ]
            ],
            [
                [
                    -0.82834,
                    0.0,
                    -0.60811
                ],
                [
                    -0.00091,
                    -0.34048,
                    -0.00111
                ],
                [
                    -0.77548,
                    -0.0,
                    -1.33937
                ]
            ],
            [
                [
                    -0.82905,
                    0.0,
                    -0.60864
                ],
                [
                    0.00091,
                    -0.34048,
                    0.00111
                ],
                [
                    -0.77438,
                    -0.0,
                    -1.33812
                ]
            ],
            [
                [
                    -0.82905,
                    0.0,
                    0.60864
                ],
                [
                    0.00091,
                    -0.34048,
                    -0.00111
                ],
                [
                    0.77548,
                    -0.0,
                    -1.33937
                ]
            ],
            [
                [
                    -0.82834,
                    0.0,
                    0.60811
                ],
                [
                    -0.00091,
                    -0.34048,
                    0.00111
                ],
                [
                    0.77438,
                    -0.0,
                    -1.33812
                ]
            ],
            [
                [
                    -1.67347,
                    0.0,
                    -0.43999
                ],
                [
                    0.00326,
                    -0.28625,
                    0.00098
                ],
                [
                    -0.49806,
                    -0.0,
                    -0.46995
                ]
            ],
            [
                [
                    -1.67088,
                    0.0,
                    0.43931
                ],
                [
                    -0.00326,
                    -0.28625,
                    0.00098
                ],
                [
                    0.49806,
                    -0.0,
                    -0.46995
                ]
            ],
            [
                [
                    -1.67088,
                    0.0,
                    -0.43931
                ],
                [
                    -0.00326,
                    -0.28625,
                    -0.00098
                ],
                [
                    -0.49844,
                    -0.0,
                    -0.47007
                ]
            ],
            [
                [
                    -1.67347,
                    0.0,
                    0.43999
                ],
                [
                    0.00326,
                    -0.28625,
                    -0.00098
                ],
                [
                    0.49844,
                    -0.0,
                    -0.47007
                ]
            ]
        ]
    },
    "band_gap": 2.0186,
    "is_direct": false,
    "formula": "RbMnO4"
}