{
    "mp_id": "mp-19380",
    "nelements": 3,
    "nsites": 12,
    "elements": [
        "Cr",
        "Hg",
        "O"
    ],
    "structure": {
        "@module": "pymatgen.core.structure",
        "@class": "Structure",
        "charge": null,
        "lattice": {
            "matrix": [
                [
                    2.86337177,
                    -4.44137783,
                    0.0
                ],
                [
                    2.86337177,
                    4.44137783,
                    0.0
                ],
                [
                    0.0,
                    0.0,
                    7.11017362
                ]
            ],
            "a": 5.284385955061235,
            "b": 5.284385955061235,
            "c": 7.11017362,
            "alpha": 90.0,
            "beta": 90.0,
            "gamma": 114.37996642214499,
            "volume": 180.8446480349663
        },
        "sites": [
            {
                "species": [
                    {
                        "element": "Cr",
                        "occu": 1
                    }
                ],
                "abc": [
                    0.639688,
                    0.360312,
                    0.75
                ],
                "xyz": [
                    2.8633717700000005,
                    -1.2408143726340801,
                    5.332630215
                ],
                "label": "Cr",
                "properties": {}
            },
            {
                "species": [
                    {
                        "element": "Cr",
                        "occu": 1
                    }
                ],
                "abc": [
                    0.360312,
                    0.639688,
                    0.25
                ],
                "xyz": [
                    2.8633717700000005,
                    1.2408143726340801,
                    1.777543405
                ],
                "label": "Cr",
                "properties": {}
            },
            {
                "species": [
                    {
                        "element": "Hg",
                        "occu": 1
                    }
                ],
                "abc": [
                    0.0,
                    0.0,
                    0.0
                ],
                "xyz": [
                    0.0,
                    0.0,
                    0.0
                ],
                "label": "Hg",
                "properties": {}
            },
            {
                "species": [
                    {
                        "element": "Hg",
                        "occu": 1
                    }
                ],
                "abc": [
                    0.0,
                    0.0,
                    0.5
                ],
                "xyz": [
                    0.0,
                    0.0,
                    3.55508681
                ],
                "label": "Hg",
                "properties": {}
            },
            {
                "species": [
                    {
                        "element": "O",
                        "occu": 1
                    }
                ],
                "abc": [
                    0.7121498,
                    0.77340169,
                    0.25
                ],
                "xyz": [
                    4.253686199347438,
                    0.27204278629159884,
                    1.777543405
                ],
                "label": "O",
                "properties": {}
            },
            {
                "species": [
                    {
                        "element": "O",
                        "occu": 1
                    }
                ],
                "abc": [
                    0.2878502,
                    0.22659831,
                    0.75
                ],
                "xyz": [
                    1.4730573406525629,
                    -0.2720427862915986,
                    5.332630215
                ],
                "label": "O",
                "properties": {}
            },
            {
                "species": [
                    {
                        "element": "O",
                        "occu": 1
                    }
                ],
                "abc": [
                    0.77340169,
                    0.7121498,
                    0.75
                ],
                "xyz": [
                    4.253686199347438,
                    -0.27204278629159884,
                    5.332630215
                ],
                "label": "O",
                "properties": {}
            },
            {
                "species": [
                    {
                        "element": "O",
                        "occu": 1
                    }
                ],
                "abc": [
                    0.22659831,
                    0.2878502,
                    0.25
                ],
                "xyz": [
                    1.4730573406525629,
                    0.2720427862915986,
                    1.777543405
                ],
                "label": "O",
                "properties": {}
            },
            {
                "species": [
                    {
                        "element": "O",
                        "occu": 1
                    }
                ],
                "abc": [
                    0.25569906,
                    0.74430094,
                    0.43807952
                ],
                "xyz": [
                    2.86337177,
                    2.1700655575283205,
                    3.1148214465662627
                ],
                "label": "O",
                "properties": {}
            },
            {
                "species": [
                    {
                        "element": "O",
                        "occu": 1
                    }
                ],
                "abc": [
                    0.74430094,
                    0.25569906,
                    0.93807952
                ],
                "xyz": [
                    2.86337177,
                    -2.1700655575283205,
                    6.669908256566262
                ],
                "label": "O",
                "properties": {}
            },
            {
                "species": [
                    {
                        "element": "O",
                        "occu": 1
                    }
                ],
                "abc": [
                    0.74430094,
                    0.25569906,
                    0.56192048
                ],
                "xyz": [
                    2.86337177,
                    -2.1700655575283205,
                    3.995352173433738
                ],
                "label": "O",
                "properties": {}
            },
            {
                "species": [
                    {
                        "element": "O",
                        "occu": 1
                    }
                ],
                "abc": [
                    0.25569906,
                    0.74430094,
                    0.06192048
                ],
                "xyz": [
                    2.86337177,
                    2.1700655575283205,
                    0.4402653634337376
                ],
                "label": "O",
                "properties": {}
            }
        ]
    },
    "spacegroup": {
        "source": "spglib",
        "symbol": "Cmcm",
        "number": 63,
        "point_group": "mmm",
        "crystal_system": "orthorhombic",
        "hall": "-C 2c 2"
    },
    "dielectric": {
        "epsilon_ionic": [
            [
                7.87312545,
                -1.5e-07,
                -1.8e-07
            ],
            [
                -1.5e-07,
                4.43776582,
                5e-08
            ],
            [
                -1.8e-07,
                5e-08,
                3.929983
            ]
        ],
        "epsilon_ionic_avg": 5.413624756666665,
        "epsilon_ionic_eig": [
            7.873125450000012,
            3.9299829999999867,
            4.4377658199999965
        ],
        "epsilon_electronic": [
            [
                5.8120694,
                0.0,
                0.0
            ],
            [
                0.0,
                5.113752,
                0.0
            ],
            [
                0.0,
                0.0,
                4.73752366
            ]
        ],
        "epsilon_electronic_avg": 5.22111502,
        "epsilon_electronic_eig": [
            5.8120694,
            5.113752,
            4.73752366
        ]
    },
    "phonon": {
        "lowest_freq": -0.025955536525461256,
        "frequency": [
            -0.025955536525461256,
            -0.024931492097881397,
            -0.019886171578605016,
            1.5074260579423655,
            1.6576353035730718,
            2.379438689045331,
            2.4095941210634138,
            2.6991298119102347,
            2.749087396963572,
            3.0572780772524597,
            3.1648568986976424,
            3.778264467815855,
            3.8851969506192936,
            4.423144426547094,
            4.750443537298009,
            5.647924909604415,
            7.433358693821356,
            8.315125752837629,
            8.998295378007372,
            9.80840501362827,
            10.051001848178988,
            10.065612959942012,
            10.254990067001824,
            10.668704796478437,
            10.966165767077841,
            10.969652263702605,
            11.10733873231203,
            11.761262546811235,
            21.841292714296497,
            23.43493219421613,
            24.229596074956653,
            24.540748170088946,
            26.599404522672423,
            27.2702317457171,
            27.85776981350694,
            27.912621066021714
        ]
    },
    "born_effective_charge": {
        "avg_abs_trace": 2.1812799999999997,
        "tensors": [
            [
                [
                    4.55687,
                    0.00084,
                    0.0
                ],
                [
                    0.0,
                    3.67798,
                    -0.0
                ],
                [
                    0.0,
                    -0.00026,
                    2.61529
                ]
            ],
            [
                [
                    4.55687,
                    -0.00084,
                    0.0
                ],
                [
                    0.0,
                    3.67758,
                    -0.0
                ],
                [
                    0.0,
                    0.00026,
                    2.61529
                ]
            ],
            [
                [
                    3.1689,
                    -0.0,
                    0.0
                ],
                [
                    0.0,
                    2.85721,
                    0.86395
                ],
                [
                    0.0,
                    -0.64775,
                    2.75546
                ]
            ],
            [
                [
                    3.1689,
                    -0.0,
                    0.0
                ],
                [
                    0.0,
                    2.85721,
                    -0.86395
                ],
                [
                    0.0,
                    0.64775,
                    2.75546
                ]
            ],
            [
                [
                    -3.54881,
                    1.78996,
                    0.0
                ],
                [
                    1.51134,
                    -1.44808,
                    -0.0
                ],
                [
                    -1e-05,
                    -2e-05,
                    -0.94616
                ]
            ],
            [
                [
                    -3.55005,
                    1.78938,
                    0.0
                ],
                [
                    1.51131,
                    -1.44863,
                    -0.0
                ],
                [
                    1e-05,
                    2e-05,
                    -0.94616
                ]
            ],
            [
                [
                    -3.54881,
                    -1.78996,
                    0.0
                ],
                [
                    -1.51131,
                    -1.44863,
                    -0.0
                ],
                [
                    -1e-05,
                    2e-05,
                    -0.94616
                ]
            ],
            [
                [
                    -3.55005,
                    -1.78938,
                    0.0
                ],
                [
                    -1.51134,
                    -1.44808,
                    -0.0
                ],
                [
                    1e-05,
                    -2e-05,
                    -0.94616
                ]
            ],
            [
                [
                    -0.31346,
                    -0.0002,
                    -0.00049
                ],
                [
                    0.0,
                    -1.8191,
                    -1.39676
                ],
                [
                    0.0,
                    -1.34293,
                    -1.73881
                ]
            ],
            [
                [
                    -0.31346,
                    0.0002,
                    -0.00049
                ],
                [
                    0.0,
                    -1.81918,
                    1.39696
                ],
                [
                    0.0,
                    1.34293,
                    -1.73881
                ]
            ],
            [
                [
                    -0.31346,
                    0.0002,
                    0.00049
                ],
                [
                    0.0,
                    -1.81918,
                    -1.39696
                ],
                [
                    0.0,
                    -1.34278,
                    -1.73963
                ]
            ],
            [
                [
                    -0.31346,
                    -0.0002,
                    0.00049
                ],
                [
                    0.0,
                    -1.8191,
                    1.39676
                ],
                [
                    0.0,
                    1.34278,
                    -1.73963
                ]
            ]
        ]
    },
    "band_gap": 1.3361,
    "is_direct": false,
    "formula": "CrHgO4"
}