{
    "mp_id": "mp-1210092",
    "nelements": 4,
    "nsites": 12,
    "elements": [
        "Bi",
        "Mo",
        "Na",
        "O"
    ],
    "structure": {
        "@module": "pymatgen.core.structure",
        "@class": "Structure",
        "charge": null,
        "lattice": {
            "matrix": [
                [
                    -2.62326757,
                    2.62326751,
                    5.69072389
                ],
                [
                    2.62326757,
                    -2.62326751,
                    5.69072389
                ],
                [
                    2.62326751,
                    2.62326757,
                    -5.69072389
                ]
            ],
            "a": 6.793188026622849,
            "b": 6.793188026622849,
            "c": 6.793188026622849,
            "alpha": 134.5682694307283,
            "beta": 134.5682694307283,
            "gamma": 66.20175650111985,
            "volume": 156.6436075573617
        },
        "sites": [
            {
                "species": [
                    {
                        "element": "Na",
                        "occu": 1
                    }
                ],
                "abc": [
                    0.75,
                    0.25,
                    0.5
                ],
                "xyz": [
                    -3.000000026176508e-08,
                    2.6232675399999996,
                    2.845361945
                ],
                "label": "Na",
                "properties": {}
            },
            {
                "species": [
                    {
                        "element": "Bi",
                        "occu": 1
                    }
                ],
                "abc": [
                    0.5,
                    0.5,
                    0.0
                ],
                "xyz": [
                    0.0,
                    0.0,
                    5.69072389
                ],
                "label": "Bi",
                "properties": {}
            },
            {
                "species": [
                    {
                        "element": "Mo",
                        "occu": 1
                    }
                ],
                "abc": [
                    0.0,
                    0.0,
                    0.0
                ],
                "xyz": [
                    0.0,
                    0.0,
                    0.0
                ],
                "label": "Mo",
                "properties": {}
            },
            {
                "species": [
                    {
                        "element": "Mo",
                        "occu": 1
                    }
                ],
                "abc": [
                    0.25,
                    0.75,
                    0.5
                ],
                "xyz": [
                    2.62326754,
                    3.0000000039720476e-08,
                    2.845361945
                ],
                "label": "Mo",
                "properties": {}
            },
            {
                "species": [
                    {
                        "element": "O",
                        "occu": 1
                    }
                ],
                "abc": [
                    0.49043895,
                    0.07870682,
                    0.8929638
                ],
                "xyz": [
                    1.2623993799901139,
                    3.422566497176062,
                    -1.8427589993337365
                ],
                "label": "O",
                "properties": {}
            },
            {
                "species": [
                    {
                        "element": "O",
                        "occu": 1
                    }
                ],
                "abc": [
                    0.18574302,
                    0.59747415,
                    0.1070362
                ],
                "xyz": [
                    1.3608655067423163,
                    -0.7992963039085523,
                    3.8479591999423732
                ],
                "label": "O",
                "properties": {}
            },
            {
                "species": [
                    {
                        "element": "O",
                        "occu": 1
                    }
                ],
                "abc": [
                    0.92129318,
                    0.81425698,
                    0.41173112
                ],
                "xyz": [
                    0.799296277675877,
                    1.3608654805096403,
                    7.533488636964865
                ],
                "label": "O",
                "properties": {}
            },
            {
                "species": [
                    {
                        "element": "O",
                        "occu": 1
                    }
                ],
                "abc": [
                    0.40252585,
                    0.50956105,
                    0.58826888
                ],
                "xyz": [
                    1.8239686090565526,
                    1.2624047127578697,
                    1.842758942426498
                ],
                "label": "O",
                "properties": {}
            },
            {
                "species": [
                    {
                        "element": "O",
                        "occu": 1
                    }
                ],
                "abc": [
                    0.327869,
                    0.92642568,
                    0.08541005
                ],
                "xyz": [
                    1.794227736643343,
                    -1.346120877220388,
                    6.651799688594811
                ],
                "label": "O",
                "properties": {}
            },
            {
                "species": [
                    {
                        "element": "O",
                        "occu": 1
                    }
                ],
                "abc": [
                    0.84101562,
                    0.24245795,
                    0.91458995
                ],
                "xyz": [
                    0.8290371763217625,
                    3.969391044255223,
                    0.9610700509636807
                ],
                "label": "O",
                "properties": {}
            },
            {
                "species": [
                    {
                        "element": "O",
                        "occu": 1
                    }
                ],
                "abc": [
                    0.07357432,
                    0.15898438,
                    0.40144333
                ],
                "xyz": [
                    1.2771466852449624,
                    0.8290398333566574,
                    -0.9610757985948106
                ],
                "label": "O",
                "properties": {}
            },
            {
                "species": [
                    {
                        "element": "O",
                        "occu": 1
                    }
                ],
                "abc": [
                    0.75754205,
                    0.672131,
                    0.59855667
                ],
                "xyz": [
                    1.3461182277201433,
                    1.794230333678177,
                    4.7296538390363185
                ],
                "label": "O",
                "properties": {}
            }
        ]
    },
    "spacegroup": {
        "source": "spglib",
        "symbol": "I-4",
        "number": 82,
        "point_group": "-4",
        "crystal_system": "tetragonal",
        "hall": "I -4"
    },
    "dielectric": {
        "epsilon_ionic": [
            [
                24.51666323,
                0.00047898,
                0.00071604
            ],
            [
                0.00047898,
                24.51653434,
                0.00028089
            ],
            [
                0.00071604,
                0.00028089,
                28.6567049
            ]
        ],
        "epsilon_ionic_avg": 25.896634156666664,
        "epsilon_ionic_eig": [
            28.65670504291077,
            24.517081954379517,
            24.516115472709707
        ],
        "epsilon_electronic": [
            [
                5.5174787,
                -5.773e-05,
                0.0
            ],
            [
                5.773e-05,
                5.5174787,
                -0.0
            ],
            [
                -0.0,
                0.0,
                5.12955798
            ]
        ],
        "epsilon_electronic_avg": 5.388171793333334,
        "epsilon_electronic_eig": [
            5.5174787,
            5.5174787,
            5.12955798
        ]
    },
    "phonon": {
        "lowest_freq": -0.016921575343439643,
        "frequency": [
            -0.016921575343439643,
            -0.016360443325201302,
            -0.016360443325201302,
            2.184924398386335,
            2.618614526673389,
            2.618614526673389,
            2.620395434716313,
            3.629421409290936,
            3.629421409290936,
            4.082046441614972,
            4.082046441614972,
            4.760546711436439,
            4.760546711436439,
            4.9476042396265845,
            6.015140572853322,
            6.35567371614525,
            7.17076979812128,
            7.195495673034814,
            7.195495673034814,
            8.511536493389041,
            8.511536493389041,
            9.314265323907074,
            9.34632009358718,
            10.939939067475933,
            11.18860067051276,
            11.18860067051276,
            11.767585850183094,
            12.240834665609352,
            21.76185377409221,
            21.76185377409221,
            21.89516674187778,
            22.74921376218781,
            22.74921376218781,
            23.31112527115235,
            25.16300071603213,
            25.346774513505995
        ]
    },
    "born_effective_charge": {
        "avg_abs_trace": 2.9111727777777774,
        "tensors": [
            [
                [
                    1.33334,
                    -0.08344,
                    -1e-05
                ],
                [
                    0.08341,
                    1.33336,
                    -2e-05
                ],
                [
                    -0.0,
                    0.0,
                    1.22222
                ]
            ],
            [
                [
                    6.21362,
                    -0.33572,
                    0.0
                ],
                [
                    0.33574,
                    6.2135,
                    -8e-05
                ],
                [
                    -0.0,
                    0.0,
                    5.66522
                ]
            ],
            [
                [
                    5.74303,
                    -0.42423,
                    0.00016
                ],
                [
                    0.42419,
                    5.743,
                    -5e-05
                ],
                [
                    -0.0,
                    0.0,
                    3.84901
                ]
            ],
            [
                [
                    4.41287,
                    1.0269,
                    -6e-05
                ],
                [
                    -1.02689,
                    4.41292,
                    -9e-05
                ],
                [
                    -0.0,
                    0.0,
                    6.25901
                ]
            ],
            [
                [
                    -2.51159,
                    -0.6057,
                    -1.56498
                ],
                [
                    -0.18514,
                    -1.28379,
                    -0.4194
                ],
                [
                    -1.78126,
                    -0.72066,
                    -2.76483
                ]
            ],
            [
                [
                    -2.51154,
                    -0.60539,
                    1.56505
                ],
                [
                    -0.18514,
                    -1.28357,
                    0.41949
                ],
                [
                    1.78126,
                    0.72066,
                    -2.76483
                ]
            ],
            [
                [
                    -1.28344,
                    0.18517,
                    0.41924
                ],
                [
                    0.60573,
                    -2.51177,
                    -1.56516
                ],
                [
                    0.72063,
                    -1.78118,
                    -2.76484
                ]
            ],
            [
                [
                    -1.28372,
                    0.185,
                    -0.41946
                ],
                [
                    0.60561,
                    -2.51166,
                    1.56511
                ],
                [
                    -0.72063,
                    1.78118,
                    -2.76484
                ]
            ],
            [
                [
                    -2.45623,
                    1.86259,
                    0.76766
                ],
                [
                    1.53381,
                    -2.59986,
                    -0.49423
                ],
                [
                    0.26581,
                    -0.24722,
                    -1.48402
                ]
            ],
            [
                [
                    -2.45621,
                    1.86272,
                    -0.7676
                ],
                [
                    1.5338,
                    -2.5999,
                    0.49433
                ],
                [
                    -0.26581,
                    0.24722,
                    -1.48402
                ]
            ],
            [
                [
                    -2.60002,
                    -1.53397,
                    0.4945
                ],
                [
                    -1.86266,
                    -2.45616,
                    0.76749
                ],
                [
                    0.24719,
                    0.26587,
                    -1.48404
                ]
            ],
            [
                [
                    -2.60012,
                    -1.53392,
                    -0.4945
                ],
                [
                    -1.86246,
                    -2.45608,
                    -0.76738
                ],
                [
                    -0.24719,
                    -0.26587,
                    -1.48404
                ]
            ]
        ]
    },
    "band_gap": 2.4518999999999997,
    "is_direct": false,
    "formula": "NaBi(MoO4)2"
}