{
    "mp_id": "mp-1190545",
    "nelements": 4,
    "nsites": 24,
    "elements": [
        "Ba",
        "Ge",
        "Mg",
        "O"
    ],
    "structure": {
        "@module": "pymatgen.core.structure",
        "@class": "Structure",
        "charge": null,
        "lattice": {
            "matrix": [
                [
                    8.41453417,
                    0.0,
                    0.0
                ],
                [
                    0.0,
                    8.41453417,
                    0.0
                ],
                [
                    0.0,
                    0.0,
                    5.57160419
                ]
            ],
            "a": 8.41453417,
            "b": 8.41453417,
            "c": 5.57160419,
            "alpha": 90.0,
            "beta": 90.0,
            "gamma": 90.0,
            "volume": 394.49400979725493
        },
        "sites": [
            {
                "species": [
                    {
                        "element": "Ba",
                        "occu": 1
                    }
                ],
                "abc": [
                    0.83515134,
                    0.33515134,
                    0.50911817
                ],
                "xyz": [
                    7.027409487551288,
                    2.820142402551288,
                    2.836604929177133
                ],
                "label": "Ba",
                "properties": {}
            },
            {
                "species": [
                    {
                        "element": "Ba",
                        "occu": 1
                    }
                ],
                "abc": [
                    0.33515134,
                    0.16484866,
                    0.49088183
                ],
                "xyz": [
                    2.820142402551288,
                    1.3871246824487122,
                    2.734999260822868
                ],
                "label": "Ba",
                "properties": {}
            },
            {
                "species": [
                    {
                        "element": "Ba",
                        "occu": 1
                    }
                ],
                "abc": [
                    0.16484866,
                    0.66484866,
                    0.50911817
                ],
                "xyz": [
                    1.3871246824487122,
                    5.594391767448712,
                    2.836604929177133
                ],
                "label": "Ba",
                "properties": {}
            },
            {
                "species": [
                    {
                        "element": "Ba",
                        "occu": 1
                    }
                ],
                "abc": [
                    0.66484866,
                    0.83515134,
                    0.49088183
                ],
                "xyz": [
                    5.594391767448712,
                    7.027409487551288,
                    2.734999260822868
                ],
                "label": "Ba",
                "properties": {}
            },
            {
                "species": [
                    {
                        "element": "Mg",
                        "occu": 1
                    }
                ],
                "abc": [
                    0.5,
                    0.5,
                    0.0
                ],
                "xyz": [
                    4.207267085,
                    4.207267085,
                    0.0
                ],
                "label": "Mg",
                "properties": {}
            },
            {
                "species": [
                    {
                        "element": "Mg",
                        "occu": 1
                    }
                ],
                "abc": [
                    0.0,
                    0.0,
                    0.0
                ],
                "xyz": [
                    0.0,
                    0.0,
                    0.0
                ],
                "label": "Mg",
                "properties": {}
            },
            {
                "species": [
                    {
                        "element": "Ge",
                        "occu": 1
                    }
                ],
                "abc": [
                    0.64184502,
                    0.14184502,
                    0.95815573
                ],
                "xyz": [
                    5.400826852634333,
                    1.1935597676343332,
                    5.338464479940509
                ],
                "label": "Ge",
                "properties": {}
            },
            {
                "species": [
                    {
                        "element": "Ge",
                        "occu": 1
                    }
                ],
                "abc": [
                    0.14184502,
                    0.35815498,
                    0.04184427
                ],
                "xyz": [
                    1.1935597676343332,
                    3.0137073173656668,
                    0.23313971005949133
                ],
                "label": "Ge",
                "properties": {}
            },
            {
                "species": [
                    {
                        "element": "Ge",
                        "occu": 1
                    }
                ],
                "abc": [
                    0.35815498,
                    0.85815498,
                    0.95815573
                ],
                "xyz": [
                    3.0137073173656668,
                    7.220974402365666,
                    5.338464479940509
                ],
                "label": "Ge",
                "properties": {}
            },
            {
                "species": [
                    {
                        "element": "Ge",
                        "occu": 1
                    }
                ],
                "abc": [
                    0.85815498,
                    0.64184502,
                    0.04184427
                ],
                "xyz": [
                    7.220974402365666,
                    5.400826852634333,
                    0.23313971005949133
                ],
                "label": "Ge",
                "properties": {}
            },
            {
                "species": [
                    {
                        "element": "O",
                        "occu": 1
                    }
                ],
                "abc": [
                    0.0,
                    0.5,
                    0.16768645
                ],
                "xyz": [
                    0.0,
                    4.207267085,
                    0.9342825274262255
                ],
                "label": "O",
                "properties": {}
            },
            {
                "species": [
                    {
                        "element": "O",
                        "occu": 1
                    }
                ],
                "abc": [
                    0.5,
                    0.0,
                    0.83231355
                ],
                "xyz": [
                    4.207267085,
                    0.0,
                    4.6373216625737745
                ],
                "label": "O",
                "properties": {}
            },
            {
                "species": [
                    {
                        "element": "O",
                        "occu": 1
                    }
                ],
                "abc": [
                    0.63814377,
                    0.13814377,
                    0.27382773
                ],
                "xyz": [
                    5.369682558037621,
                    1.1624154730376208,
                    1.5256597278061887
                ],
                "label": "O",
                "properties": {}
            },
            {
                "species": [
                    {
                        "element": "O",
                        "occu": 1
                    }
                ],
                "abc": [
                    0.13814377,
                    0.36185623,
                    0.72617227
                ],
                "xyz": [
                    1.1624154730376208,
                    3.044851611962379,
                    4.045944462193812
                ],
                "label": "O",
                "properties": {}
            },
            {
                "species": [
                    {
                        "element": "O",
                        "occu": 1
                    }
                ],
                "abc": [
                    0.36185623,
                    0.86185623,
                    0.27382773
                ],
                "xyz": [
                    3.044851611962379,
                    7.252118696962379,
                    1.5256597278061887
                ],
                "label": "O",
                "properties": {}
            },
            {
                "species": [
                    {
                        "element": "O",
                        "occu": 1
                    }
                ],
                "abc": [
                    0.86185623,
                    0.63814377,
                    0.72617227
                ],
                "xyz": [
                    7.252118696962379,
                    5.369682558037621,
                    4.045944462193812
                ],
                "label": "O",
                "properties": {}
            },
            {
                "species": [
                    {
                        "element": "O",
                        "occu": 1
                    }
                ],
                "abc": [
                    0.57905934,
                    0.31953586,
                    0.8101223
                ],
                "xyz": [
                    4.872514602887648,
                    2.688745412510336,
                    4.513680801092437
                ],
                "label": "O",
                "properties": {}
            },
            {
                "species": [
                    {
                        "element": "O",
                        "occu": 1
                    }
                ],
                "abc": [
                    0.07905934,
                    0.18046414,
                    0.1898777
                ],
                "xyz": [
                    0.6652475178876478,
                    1.5185216724896637,
                    1.0579233889075632
                ],
                "label": "O",
                "properties": {}
            },
            {
                "species": [
                    {
                        "element": "O",
                        "occu": 1
                    }
                ],
                "abc": [
                    0.42094066,
                    0.68046414,
                    0.8101223
                ],
                "xyz": [
                    3.542019567112352,
                    5.7257887574896635,
                    4.513680801092437
                ],
                "label": "O",
                "properties": {}
            },
            {
                "species": [
                    {
                        "element": "O",
                        "occu": 1
                    }
                ],
                "abc": [
                    0.92094066,
                    0.81953586,
                    0.1898777
                ],
                "xyz": [
                    7.749286652112351,
                    6.896012497510336,
                    1.0579233889075632
                ],
                "label": "O",
                "properties": {}
            },
            {
                "species": [
                    {
                        "element": "O",
                        "occu": 1
                    }
                ],
                "abc": [
                    0.68046414,
                    0.57905934,
                    0.1898777
                ],
                "xyz": [
                    5.7257887574896635,
                    4.872514602887648,
                    1.0579233889075632
                ],
                "label": "O",
                "properties": {}
            },
            {
                "species": [
                    {
                        "element": "O",
                        "occu": 1
                    }
                ],
                "abc": [
                    0.18046414,
                    0.92094066,
                    0.8101223
                ],
                "xyz": [
                    1.5185216724896637,
                    7.749286652112351,
                    4.513680801092437
                ],
                "label": "O",
                "properties": {}
            },
            {
                "species": [
                    {
                        "element": "O",
                        "occu": 1
                    }
                ],
                "abc": [
                    0.31953586,
                    0.42094066,
                    0.1898777
                ],
                "xyz": [
                    2.688745412510336,
                    3.542019567112352,
                    1.0579233889075632
                ],
                "label": "O",
                "properties": {}
            },
            {
                "species": [
                    {
                        "element": "O",
                        "occu": 1
                    }
                ],
                "abc": [
                    0.81953586,
                    0.07905934,
                    0.8101223
                ],
                "xyz": [
                    6.896012497510336,
                    0.6652475178876478,
                    4.513680801092437
                ],
                "label": "O",
                "properties": {}
            }
        ]
    },
    "spacegroup": {
        "source": "spglib",
        "symbol": "P-42_1m",
        "number": 113,
        "point_group": "-42m",
        "crystal_system": "tetragonal",
        "hall": "P -4 2ab"
    },
    "dielectric": {
        "epsilon_ionic": [
            [
                5.95767399,
                0.0,
                1e-08
            ],
            [
                0.0,
                5.95767604,
                1e-08
            ],
            [
                1e-08,
                1e-08,
                4.70919551
            ]
        ],
        "epsilon_ionic_avg": 5.54151518,
        "epsilon_ionic_eig": [
            4.709195510000001,
            5.95767399,
            5.95767604
        ],
        "epsilon_electronic": [
            [
                3.162906,
                0.0,
                0.0
            ],
            [
                0.0,
                3.162906,
                0.0
            ],
            [
                0.0,
                0.0,
                3.32180548
            ]
        ],
        "epsilon_electronic_avg": 3.215872493333334,
        "epsilon_electronic_eig": [
            3.162906,
            3.162906,
            3.32180548
        ]
    },
    "phonon": {
        "lowest_freq": -0.03899240531366038,
        "frequency": [
            -0.03899240531366038,
            -0.03899240531366038,
            -0.02649438939161511,
            1.7074267397081646,
            1.9297085107172975,
            1.9297085107172975,
            2.506071944052491,
            2.6690586242075574,
            2.8334237360118824,
            2.8334237360118824,
            3.109277023225253,
            3.1796691346064367,
            3.1796691346064367,
            3.5011165162119675,
            3.5011165162119675,
            3.6700346776283133,
            3.7260699542944606,
            4.001757307914514,
            4.382848270634019,
            4.689227085548057,
            4.689227085548057,
            4.779178927341931,
            4.779178927341931,
            4.788910130693352,
            5.163823817639518,
            5.860364404301128,
            5.860364404301128,
            6.009820437283024,
            6.070845163436098,
            6.414411308159789,
            6.650777501200407,
            6.77430250802413,
            7.070573946232193,
            7.243246377378829,
            7.243246377378829,
            8.269987116733448,
            8.269987116733448,
            8.415397971814299,
            8.439764886231703,
            8.793666756575584,
            8.905008641577552,
            8.905008641577552,
            9.72646040667261,
            9.72646040667261,
            10.249862979151166,
            11.62798937956214,
            11.62798937956214,
            11.887415511846358,
            12.222223844422242,
            12.86887087727608,
            13.677212903956454,
            14.117745438579387,
            14.117745438579387,
            14.189243612203423,
            14.584334156002814,
            14.80755417054322,
            14.80755417054322,
            14.858780407380992,
            20.902074737209997,
            20.902074737209997,
            21.230867353577317,
            21.230867353577317,
            21.41678146502903,
            22.267664392672955,
            22.267664392672955,
            22.336823437980854,
            22.492120944525592,
            22.75814028307578,
            22.85024718385145,
            22.85421083897945,
            24.91043144496412,
            24.91043144496412
        ]
    },
    "born_effective_charge": {
        "avg_abs_trace": 2.1828290277777778,
        "tensors": [
            [
                [
                    2.51551,
                    0.45485,
                    -0.17171
                ],
                [
                    0.45483,
                    2.51553,
                    -0.1717
                ],
                [
                    0.05211,
                    0.05211,
                    2.79372
                ]
            ],
            [
                [
                    2.51551,
                    -0.45485,
                    0.17171
                ],
                [
                    -0.45478,
                    2.51553,
                    -0.17175
                ],
                [
                    -0.05208,
                    0.05208,
                    2.79365
                ]
            ],
            [
                [
                    2.51555,
                    0.45477,
                    0.17175
                ],
                [
                    0.45478,
                    2.51553,
                    0.17175
                ],
                [
                    -0.05211,
                    -0.05211,
                    2.79372
                ]
            ],
            [
                [
                    2.51555,
                    -0.45477,
                    -0.17175
                ],
                [
                    -0.45483,
                    2.51553,
                    0.1717
                ],
                [
                    0.05208,
                    -0.05208,
                    2.79365
                ]
            ],
            [
                [
                    2.23018,
                    0.05104,
                    0.0
                ],
                [
                    -0.05104,
                    2.23018,
                    -0.0
                ],
                [
                    -0.0,
                    0.0,
                    1.41711
                ]
            ],
            [
                [
                    2.23018,
                    -0.05104,
                    -0.0
                ],
                [
                    0.05104,
                    2.23018,
                    0.0
                ],
                [
                    -0.0,
                    0.0,
                    1.41711
                ]
            ],
            [
                [
                    2.8522,
                    0.15082,
                    0.0862
                ],
                [
                    0.15082,
                    2.8522,
                    0.0862
                ],
                [
                    -0.05169,
                    -0.05169,
                    3.17765
                ]
            ],
            [
                [
                    2.8522,
                    -0.15082,
                    -0.0862
                ],
                [
                    -0.15085,
                    2.8522,
                    0.086
                ],
                [
                    0.05166,
                    -0.05166,
                    3.1775
                ]
            ],
            [
                [
                    2.8522,
                    0.15085,
                    -0.086
                ],
                [
                    0.15085,
                    2.8522,
                    -0.086
                ],
                [
                    0.05169,
                    0.05169,
                    3.17765
                ]
            ],
            [
                [
                    2.8522,
                    -0.15085,
                    0.086
                ],
                [
                    -0.15082,
                    2.8522,
                    -0.0862
                ],
                [
                    -0.05166,
                    0.05166,
                    3.1775
                ]
            ],
            [
                [
                    -2.17452,
                    0.82815,
                    -3e-05
                ],
                [
                    0.82815,
                    -2.17452,
                    -3e-05
                ],
                [
                    -0.0,
                    0.0,
                    -1.7566
                ]
            ],
            [
                [
                    -2.17452,
                    -0.82815,
                    3e-05
                ],
                [
                    -0.82815,
                    -2.17452,
                    3e-05
                ],
                [
                    -0.0,
                    0.0,
                    -1.75659
                ]
            ],
            [
                [
                    -1.59319,
                    -0.14399,
                    -0.05342
                ],
                [
                    -0.14397,
                    -1.59318,
                    -0.05342
                ],
                [
                    0.00391,
                    0.00391,
                    -2.43903
                ]
            ],
            [
                [
                    -1.59319,
                    0.14399,
                    0.05342
                ],
                [
                    0.14407,
                    -1.5932,
                    -0.05304
                ],
                [
                    -0.00391,
                    0.00391,
                    -2.4388
                ]
            ],
            [
                [
                    -1.59318,
                    -0.14405,
                    0.05304
                ],
                [
                    -0.14407,
                    -1.5932,
                    0.05304
                ],
                [
                    -0.00391,
                    -0.00391,
                    -2.43903
                ]
            ],
            [
                [
                    -1.59318,
                    0.14405,
                    -0.05304
                ],
                [
                    0.14397,
                    -1.59318,
                    0.05342
                ],
                [
                    0.00391,
                    -0.00391,
                    -2.4388
                ]
            ],
            [
                [
                    -1.71167,
                    0.06495,
                    0.0846
                ],
                [
                    0.1887,
                    -2.09072,
                    0.18271
                ],
                [
                    0.05711,
                    0.11408,
                    -1.68139
                ]
            ],
            [
                [
                    -1.71167,
                    -0.06495,
                    -0.0846
                ],
                [
                    -0.18867,
                    -2.09088,
                    0.18288
                ],
                [
                    -0.05723,
                    0.11406,
                    -1.68121
                ]
            ],
            [
                [
                    -1.71149,
                    0.0649,
                    -0.08461
                ],
                [
                    0.18867,
                    -2.09088,
                    -0.18288
                ],
                [
                    -0.05711,
                    -0.11408,
                    -1.68139
                ]
            ],
            [
                [
                    -1.71149,
                    -0.0649,
                    0.08461
                ],
                [
                    -0.1887,
                    -2.09072,
                    -0.18271
                ],
                [
                    0.05723,
                    -0.11406,
                    -1.68121
                ]
            ],
            [
                [
                    -2.09088,
                    -0.18868,
                    0.1829
                ],
                [
                    -0.06494,
                    -1.71168,
                    -0.0846
                ],
                [
                    0.11406,
                    -0.05723,
                    -1.68121
                ]
            ],
            [
                [
                    -2.09088,
                    0.18868,
                    -0.1829
                ],
                [
                    0.06491,
                    -1.71148,
                    -0.08462
                ],
                [
                    -0.11408,
                    -0.05711,
                    -1.68139
                ]
            ],
            [
                [
                    -2.09072,
                    -0.18869,
                    -0.18269
                ],
                [
                    -0.06491,
                    -1.71148,
                    0.08462
                ],
                [
                    -0.11406,
                    0.05723,
                    -1.68121
                ]
            ],
            [
                [
                    -2.09072,
                    0.18869,
                    0.18269
                ],
                [
                    0.06494,
                    -1.71168,
                    0.0846
                ],
                [
                    0.11408,
                    0.05711,
                    -1.68139
                ]
            ]
        ]
    },
    "band_gap": 3.5075,
    "is_direct": false,
    "formula": "Ba2MgGe2O7"
}