{
    "mp_id": "mp-13995",
    "nelements": 3,
    "nsites": 14,
    "elements": [
        "Ge",
        "Hg",
        "O"
    ],
    "structure": {
        "@module": "pymatgen.core.structure",
        "@class": "Structure",
        "charge": null,
        "lattice": {
            "matrix": [
                [
                    0.0,
                    5.34974446,
                    5.82642903
                ],
                [
                    3.30276114,
                    0.0,
                    5.82642903
                ],
                [
                    3.30276114,
                    5.34974446,
                    0.0
                ]
            ],
            "a": 7.909933060963755,
            "b": 6.697425355278015,
            "c": 6.28712946702983,
            "alpha": 74.98593025394625,
            "beta": 54.86575945328774,
            "gamma": 50.14831029276602,
            "volume": 205.8935113547011
        },
        "sites": [
            {
                "species": [
                    {
                        "element": "Hg",
                        "occu": 1
                    }
                ],
                "abc": [
                    0.67888451,
                    0.32111549,
                    0.67888451
                ],
                "xyz": [
                    3.3027611400000003,
                    7.26371729270463,
                    5.82642903
                ],
                "label": "Hg",
                "properties": {}
            },
            {
                "species": [
                    {
                        "element": "Hg",
                        "occu": 1
                    }
                ],
                "abc": [
                    0.32111549,
                    0.67888451,
                    0.32111549
                ],
                "xyz": [
                    3.3027611400000003,
                    3.435771627295371,
                    5.82642903
                ],
                "label": "Hg",
                "properties": {}
            },
            {
                "species": [
                    {
                        "element": "Hg",
                        "occu": 1
                    }
                ],
                "abc": [
                    0.57111549,
                    0.92888451,
                    0.57111549
                ],
                "xyz": [
                    4.95414171,
                    6.11064385729537,
                    8.739643545
                ],
                "label": "Hg",
                "properties": {}
            },
            {
                "species": [
                    {
                        "element": "Hg",
                        "occu": 1
                    }
                ],
                "abc": [
                    0.92888451,
                    0.57111549,
                    0.92888451
                ],
                "xyz": [
                    4.95414171,
                    9.93858952270463,
                    8.739643545
                ],
                "label": "Hg",
                "properties": {}
            },
            {
                "species": [
                    {
                        "element": "Ge",
                        "occu": 1
                    }
                ],
                "abc": [
                    0.0,
                    0.0,
                    0.0
                ],
                "xyz": [
                    0.0,
                    0.0,
                    0.0
                ],
                "label": "Ge",
                "properties": {}
            },
            {
                "species": [
                    {
                        "element": "Ge",
                        "occu": 1
                    }
                ],
                "abc": [
                    0.25,
                    0.25,
                    0.25
                ],
                "xyz": [
                    1.65138057,
                    2.67487223,
                    2.913214515
                ],
                "label": "Ge",
                "properties": {}
            },
            {
                "species": [
                    {
                        "element": "O",
                        "occu": 1
                    }
                ],
                "abc": [
                    0.95565658,
                    0.87733896,
                    0.8287808
                ],
                "xyz": [
                    5.6349060435141265,
                    9.546283987871915,
                    10.679818426116526
                ],
                "label": "O",
                "properties": {}
            },
            {
                "species": [
                    {
                        "element": "O",
                        "occu": 1
                    }
                ],
                "abc": [
                    0.33822467,
                    0.8287808,
                    0.87733896
                ],
                "xyz": [
                    5.6349060435141265,
                    6.50295479536999,
                    6.799474548576795
                ],
                "label": "O",
                "properties": {}
            },
            {
                "species": [
                    {
                        "element": "O",
                        "occu": 1
                    }
                ],
                "abc": [
                    0.8287808,
                    0.33822467,
                    0.95565658
                ],
                "xyz": [
                    4.273380712274625,
                    9.546283987871915,
                    6.799474548576795
                ],
                "label": "O",
                "properties": {}
            },
            {
                "species": [
                    {
                        "element": "O",
                        "occu": 1
                    }
                ],
                "abc": [
                    0.87733896,
                    0.95565658,
                    0.33822467
                ],
                "xyz": [
                    4.273380712274625,
                    6.50295479536999,
                    10.679818426116526
                ],
                "label": "O",
                "properties": {}
            },
            {
                "species": [
                    {
                        "element": "O",
                        "occu": 1
                    }
                ],
                "abc": [
                    0.29434342,
                    0.37266104,
                    0.4212192
                ],
                "xyz": [
                    2.621996806485874,
                    3.8280771621280856,
                    3.8862541488834736
                ],
                "label": "O",
                "properties": {}
            },
            {
                "species": [
                    {
                        "element": "O",
                        "occu": 1
                    }
                ],
                "abc": [
                    0.91177533,
                    0.4212192,
                    0.37266104
                ],
                "xyz": [
                    2.621996806485874,
                    6.87140635463001,
                    7.766598026423207
                ],
                "label": "O",
                "properties": {}
            },
            {
                "species": [
                    {
                        "element": "O",
                        "occu": 1
                    }
                ],
                "abc": [
                    0.37266104,
                    0.29434342,
                    0.91177533
                ],
                "xyz": [
                    3.983522137725375,
                    6.87140635463001,
                    3.8862541488834736
                ],
                "label": "O",
                "properties": {}
            },
            {
                "species": [
                    {
                        "element": "O",
                        "occu": 1
                    }
                ],
                "abc": [
                    0.4212192,
                    0.91177533,
                    0.29434342
                ],
                "xyz": [
                    3.983522137725375,
                    3.8280771621280856,
                    7.766598026423207
                ],
                "label": "O",
                "properties": {}
            }
        ]
    },
    "spacegroup": {
        "source": "spglib",
        "symbol": "Fddd",
        "number": 70,
        "point_group": "mmm",
        "crystal_system": "orthorhombic",
        "hall": "F 2 2 -1d"
    },
    "dielectric": {
        "epsilon_ionic": [
            [
                11.94255241,
                1e-08,
                1e-08
            ],
            [
                1e-08,
                7.45365507,
                -1e-07
            ],
            [
                1e-08,
                -1e-07,
                3.48352837
            ]
        ],
        "epsilon_ionic_avg": 7.626578616666667,
        "epsilon_ionic_eig": [
            11.942552410000001,
            3.4835283699999975,
            7.453655070000004
        ],
        "epsilon_electronic": [
            [
                5.42195109,
                0.0,
                0.0
            ],
            [
                0.0,
                5.35077834,
                0.0
            ],
            [
                0.0,
                0.0,
                6.18559329
            ]
        ],
        "epsilon_electronic_avg": 5.652774239999999,
        "epsilon_electronic_eig": [
            5.42195109,
            5.35077834,
            6.18559329
        ]
    },
    "phonon": {
        "lowest_freq": -0.022455834274729365,
        "frequency": [
            -0.022455834274729365,
            -0.021471778924933224,
            -0.016921677167041023,
            1.4807925819421521,
            1.5856525913046509,
            1.6559914427323157,
            1.671735773576754,
            1.7243273226213518,
            1.894871526739552,
            1.9182832182588243,
            2.451567310930411,
            2.6632812899824914,
            3.200379153859843,
            3.9675336173528977,
            4.179385919444461,
            4.183211306196825,
            4.493165802075609,
            4.645677135073904,
            4.88247194529998,
            5.656350131042521,
            5.8921173387730885,
            6.824105744344981,
            7.413171463405116,
            7.475984037727105,
            8.22817880459746,
            8.693881185232941,
            10.022360052309633,
            11.678540069304542,
            12.220819638531076,
            12.460385898848987,
            12.782563620459864,
            13.00010658751646,
            13.279470035789075,
            13.33654697973693,
            20.351946041495406,
            20.543301847561686,
            20.72604049343201,
            21.06863900870537,
            21.468848442837807,
            22.226663323578546,
            22.387775352475956,
            22.58154822386386
        ]
    },
    "born_effective_charge": {
        "avg_abs_trace": 2.2884814285714286,
        "tensors": [
            [
                [
                    2.17354,
                    -2e-05,
                    -0.2621
                ],
                [
                    0.0,
                    1.92036,
                    -0.0
                ],
                [
                    -0.11226,
                    -0.00026,
                    2.86343
                ]
            ],
            [
                [
                    2.17354,
                    2e-05,
                    0.2621
                ],
                [
                    0.0,
                    1.9193,
                    -0.0
                ],
                [
                    0.11226,
                    0.00026,
                    2.86343
                ]
            ],
            [
                [
                    2.17354,
                    2e-05,
                    -0.2621
                ],
                [
                    0.0,
                    1.9193,
                    -0.0
                ],
                [
                    -0.11226,
                    0.00026,
                    2.86343
                ]
            ],
            [
                [
                    2.17354,
                    -2e-05,
                    0.2621
                ],
                [
                    0.0,
                    1.92036,
                    -0.0
                ],
                [
                    0.11226,
                    -0.00026,
                    2.86343
                ]
            ],
            [
                [
                    3.32728,
                    -0.0,
                    0.0
                ],
                [
                    0.0,
                    3.08458,
                    -0.0
                ],
                [
                    0.0,
                    -0.0,
                    3.70361
                ]
            ],
            [
                [
                    3.32728,
                    0.0,
                    0.0
                ],
                [
                    0.0,
                    3.08458,
                    -0.0
                ],
                [
                    0.0,
                    0.0,
                    3.70361
                ]
            ],
            [
                [
                    -1.91865,
                    -0.39673,
                    -0.64131
                ],
                [
                    -0.22573,
                    -1.73129,
                    0.22694
                ],
                [
                    -0.60143,
                    -0.30455,
                    -2.35763
                ]
            ],
            [
                [
                    -1.91865,
                    0.39673,
                    0.64131
                ],
                [
                    0.22625,
                    -1.73082,
                    0.22595
                ],
                [
                    0.60209,
                    -0.30462,
                    -2.3576
                ]
            ],
            [
                [
                    -1.91853,
                    0.39653,
                    -0.64125
                ],
                [
                    0.22573,
                    -1.73129,
                    -0.22694
                ],
                [
                    -0.60209,
                    0.30462,
                    -2.3576
                ]
            ],
            [
                [
                    -1.91853,
                    -0.39653,
                    0.64125
                ],
                [
                    -0.22625,
                    -1.73082,
                    -0.22595
                ],
                [
                    0.60143,
                    0.30455,
                    -2.35763
                ]
            ],
            [
                [
                    -1.91853,
                    -0.39653,
                    -0.64125
                ],
                [
                    -0.22625,
                    -1.73082,
                    0.22595
                ],
                [
                    -0.60209,
                    -0.30462,
                    -2.3576
                ]
            ],
            [
                [
                    -1.91853,
                    0.39653,
                    0.64125
                ],
                [
                    0.22573,
                    -1.73129,
                    0.22694
                ],
                [
                    0.60143,
                    -0.30455,
                    -2.35763
                ]
            ],
            [
                [
                    -1.91865,
                    -0.39673,
                    0.64131
                ],
                [
                    -0.22573,
                    -1.73129,
                    -0.22694
                ],
                [
                    0.60209,
                    0.30462,
                    -2.3576
                ]
            ],
            [
                [
                    -1.91865,
                    0.39673,
                    -0.64131
                ],
                [
                    0.22625,
                    -1.73082,
                    -0.22595
                ],
                [
                    -0.60143,
                    0.30455,
                    -2.35763
                ]
            ]
        ]
    },
    "band_gap": 0.8822000000000001,
    "is_direct": false,
    "formula": "Hg2GeO4"
}