{
    "mp_id": "mp-11022",
    "nelements": 3,
    "nsites": 8,
    "elements": [
        "Ag",
        "O",
        "Sc"
    ],
    "structure": {
        "@module": "pymatgen.core.structure",
        "@class": "Structure",
        "charge": null,
        "lattice": {
            "matrix": [
                [
                    3.17708741,
                    -0.0,
                    0.0
                ],
                [
                    -1.5885432,
                    2.75143807,
                    0.0
                ],
                [
                    0.0,
                    0.0,
                    12.25562967
                ]
            ],
            "a": 3.17708741,
            "b": 3.177086865559638,
            "c": 12.25562967,
            "alpha": 90.0,
            "beta": 90.0,
            "gamma": 119.99999515260706,
            "volume": 107.1333129258702
        },
        "sites": [
            {
                "species": [
                    {
                        "element": "Sc",
                        "occu": 1
                    }
                ],
                "abc": [
                    0.0,
                    0.0,
                    0.0
                ],
                "xyz": [
                    0.0,
                    0.0,
                    0.0
                ],
                "label": "Sc",
                "properties": {}
            },
            {
                "species": [
                    {
                        "element": "Sc",
                        "occu": 1
                    }
                ],
                "abc": [
                    0.0,
                    0.0,
                    0.5
                ],
                "xyz": [
                    0.0,
                    0.0,
                    6.127814835
                ],
                "label": "Sc",
                "properties": {}
            },
            {
                "species": [
                    {
                        "element": "Ag",
                        "occu": 1
                    }
                ],
                "abc": [
                    0.666667,
                    0.333333,
                    0.75
                ],
                "xyz": [
                    1.5885454618768702,
                    0.9171451061873099,
                    9.1917222525
                ],
                "label": "Ag",
                "properties": {}
            },
            {
                "species": [
                    {
                        "element": "Ag",
                        "occu": 1
                    }
                ],
                "abc": [
                    0.333333,
                    0.666667,
                    0.25
                ],
                "xyz": [
                    -1.2518768699454341e-06,
                    1.83429296381269,
                    3.0639074175
                ],
                "label": "Ag",
                "properties": {}
            },
            {
                "species": [
                    {
                        "element": "O",
                        "occu": 1
                    }
                ],
                "abc": [
                    0.333333,
                    0.666667,
                    0.41661504
                ],
                "xyz": [
                    -1.2518768699454341e-06,
                    1.83429296381269,
                    5.105879645192236
                ],
                "label": "O",
                "properties": {}
            },
            {
                "species": [
                    {
                        "element": "O",
                        "occu": 1
                    }
                ],
                "abc": [
                    0.666667,
                    0.333333,
                    0.91661504
                ],
                "xyz": [
                    1.5885454618768702,
                    0.9171451061873099,
                    11.233694480192236
                ],
                "label": "O",
                "properties": {}
            },
            {
                "species": [
                    {
                        "element": "O",
                        "occu": 1
                    }
                ],
                "abc": [
                    0.333333,
                    0.666667,
                    0.08338496
                ],
                "xyz": [
                    -1.2518768699454341e-06,
                    1.83429296381269,
                    1.021935189807763
                ],
                "label": "O",
                "properties": {}
            },
            {
                "species": [
                    {
                        "element": "O",
                        "occu": 1
                    }
                ],
                "abc": [
                    0.666667,
                    0.333333,
                    0.58338496
                ],
                "xyz": [
                    1.5885454618768702,
                    0.9171451061873099,
                    7.149750024807762
                ],
                "label": "O",
                "properties": {}
            }
        ]
    },
    "spacegroup": {
        "source": "spglib",
        "symbol": "P6_3/mmc",
        "number": 194,
        "point_group": "6/mmm",
        "crystal_system": "hexagonal",
        "hall": "-P 6c 2c"
    },
    "dielectric": {
        "epsilon_ionic": [
            [
                8.83856956,
                -5.1e-07,
                0.0
            ],
            [
                -5.1e-07,
                8.83684075,
                -0.0
            ],
            [
                0.0,
                -0.0,
                2.94632131
            ]
        ],
        "epsilon_ionic_avg": 6.87391054,
        "epsilon_ionic_eig": [
            8.83856956015045,
            8.83684074984955,
            2.94632131
        ],
        "epsilon_electronic": [
            [
                5.50688403,
                -1e-06,
                0.0
            ],
            [
                -1e-06,
                5.50688382,
                0.0
            ],
            [
                0.0,
                0.0,
                5.3580876
            ]
        ],
        "epsilon_electronic_avg": 5.457285150000001,
        "epsilon_electronic_eig": [
            5.50688493049739,
            5.50688291950261,
            5.3580876
        ]
    },
    "phonon": {
        "lowest_freq": -0.008962934570258718,
        "frequency": [
            -0.008962934570258718,
            -0.00896293293418639,
            -0.0018440377657641142,
            0.7471264235670836,
            0.7471265593219466,
            1.7500774200954412,
            1.7500777412928032,
            2.6220930228860566,
            2.6220935029073797,
            5.313651171216333,
            7.120655718802839,
            9.330064469473736,
            10.444393342656339,
            10.44439524976652,
            10.723245579422256,
            10.72324753950134,
            11.849211444718401,
            11.849213610433104,
            12.11089427436447,
            12.11089649418502,
            16.664026757789145,
            19.15925293196962,
            19.883826824421234,
            20.18260196408665
        ]
    },
    "born_effective_charge": {
        "avg_abs_trace": 2.47345125,
        "tensors": [
            [
                [
                    4.45872,
                    -0.0,
                    -0.0
                ],
                [
                    -0.0,
                    4.45841,
                    -4e-05
                ],
                [
                    0.0,
                    -0.0,
                    3.09991
                ]
            ],
            [
                [
                    4.45872,
                    -0.0,
                    -0.0
                ],
                [
                    -0.0,
                    4.45841,
                    4e-05
                ],
                [
                    -0.0,
                    0.0,
                    3.09991
                ]
            ],
            [
                [
                    0.55151,
                    3e-05,
                    -0.0
                ],
                [
                    0.0,
                    0.55129,
                    0.0
                ],
                [
                    -0.0,
                    0.0,
                    1.72088
                ]
            ],
            [
                [
                    0.55151,
                    -3e-05,
                    -0.0
                ],
                [
                    0.0,
                    0.55128,
                    0.0
                ],
                [
                    0.0,
                    -0.0,
                    1.72088
                ]
            ],
            [
                [
                    -2.50511,
                    -0.00049,
                    0.0
                ],
                [
                    0.0,
                    -2.50476,
                    -2e-05
                ],
                [
                    -0.0,
                    0.0,
                    -2.41036
                ]
            ],
            [
                [
                    -2.50511,
                    0.00049,
                    0.0
                ],
                [
                    0.0,
                    -2.50493,
                    1e-05
                ],
                [
                    0.0,
                    -0.0,
                    -2.41036
                ]
            ],
            [
                [
                    -2.50511,
                    -0.00049,
                    -0.0
                ],
                [
                    0.0,
                    -2.50476,
                    2e-05
                ],
                [
                    -0.0,
                    0.0,
                    -2.41043
                ]
            ],
            [
                [
                    -2.50511,
                    0.00049,
                    -0.0
                ],
                [
                    0.0,
                    -2.50493,
                    -1e-05
                ],
                [
                    0.0,
                    -0.0,
                    -2.41043
                ]
            ]
        ]
    },
    "band_gap": 2.6275999999999997,
    "is_direct": false,
    "formula": "ScAgO2"
}