{
    "mp_id": "mp-18921",
    "nelements": 3,
    "nsites": 4,
    "elements": [
        "Co",
        "Na",
        "O"
    ],
    "structure": {
        "@module": "pymatgen.core.structure",
        "@class": "Structure",
        "charge": null,
        "lattice": {
            "matrix": [
                [
                    1.43349518,
                    0.8276289,
                    5.09664929
                ],
                [
                    -1.43349518,
                    0.8276289,
                    5.09664929
                ],
                [
                    0.0,
                    -1.65525781,
                    5.09664929
                ]
            ],
            "a": 5.358704322171167,
            "b": 5.358704322171167,
            "c": 5.3587043585948555,
            "alpha": 31.032041719761416,
            "beta": 31.032041719761416,
            "gamma": 31.032039657641707,
            "volume": 36.28005080381257
        },
        "sites": [
            {
                "species": [
                    {
                        "element": "Na",
                        "occu": 1
                    }
                ],
                "abc": [
                    0.0,
                    0.0,
                    0.0
                ],
                "xyz": [
                    0.0,
                    0.0,
                    0.0
                ],
                "label": "Na",
                "properties": {}
            },
            {
                "species": [
                    {
                        "element": "Co",
                        "occu": 1
                    }
                ],
                "abc": [
                    0.5,
                    0.5,
                    0.5
                ],
                "xyz": [
                    0.0,
                    -4.999999969612645e-09,
                    7.644973935
                ],
                "label": "Co",
                "properties": {}
            },
            {
                "species": [
                    {
                        "element": "O",
                        "occu": 1
                    }
                ],
                "abc": [
                    0.76929537,
                    0.76929537,
                    0.76929537
                ],
                "xyz": [
                    0.0,
                    -7.692953607474351e-09,
                    11.762486103932362
                ],
                "label": "O",
                "properties": {}
            },
            {
                "species": [
                    {
                        "element": "O",
                        "occu": 1
                    }
                ],
                "abc": [
                    0.23070463,
                    0.23070463,
                    0.23070463
                ],
                "xyz": [
                    0.0,
                    -2.307046276239788e-09,
                    3.5274617660676384
                ],
                "label": "O",
                "properties": {}
            }
        ]
    },
    "spacegroup": {
        "source": "spglib",
        "symbol": "R-3m",
        "number": 166,
        "point_group": "-3m",
        "crystal_system": "trigonal",
        "hall": "-R 3 2\""
    },
    "dielectric": {
        "epsilon_ionic": [
            [
                3.10537814,
                -0.0,
                -2e-08
            ],
            [
                -0.0,
                3.105474,
                2.7e-06
            ],
            [
                -2e-08,
                2.7e-06,
                2.02113853
            ]
        ],
        "epsilon_ionic_avg": 2.74399689,
        "epsilon_ionic_eig": [
            2.021138529993277,
            3.1053781400000005,
            3.1054740000067227
        ],
        "epsilon_electronic": [
            [
                6.70846487,
                0.0,
                -0.0
            ],
            [
                0.0,
                6.70846934,
                -0.0
            ],
            [
                0.0,
                0.0,
                3.38840521
            ]
        ],
        "epsilon_electronic_avg": 5.601779806666667,
        "epsilon_electronic_eig": [
            6.70846487,
            6.70846934,
            3.38840521
        ]
    },
    "phonon": {
        "lowest_freq": -0.00725483153542047,
        "frequency": [
            -0.00725483153542047,
            -0.004539623925890948,
            -0.004539622426527808,
            6.229344098183322,
            6.229346177568343,
            9.322204469121035,
            14.832331170766107,
            14.832336114023262,
            16.617758890423893,
            16.617764405610068,
            17.48505032045876,
            17.862707187753248
        ]
    },
    "born_effective_charge": {
        "avg_abs_trace": 1.5907725000000001,
        "tensors": [
            [
                [
                    0.91285,
                    0.0,
                    -0.0
                ],
                [
                    0.0,
                    0.91287,
                    0.0
                ],
                [
                    0.0,
                    -0.0,
                    1.47077
                ]
            ],
            [
                [
                    2.80672,
                    0.0,
                    -0.0
                ],
                [
                    0.0,
                    2.80674,
                    0.0
                ],
                [
                    -0.0,
                    -0.0,
                    0.63468
                ]
            ],
            [
                [
                    -1.85978,
                    -0.00023,
                    -0.00046
                ],
                [
                    0.0,
                    -1.85981,
                    0.0
                ],
                [
                    0.0,
                    -0.0,
                    -1.05262
                ]
            ],
            [
                [
                    -1.85978,
                    0.00023,
                    0.00046
                ],
                [
                    0.0,
                    -1.85981,
                    -1e-05
                ],
                [
                    0.0,
                    0.0,
                    -1.05284
                ]
            ]
        ]
    },
    "band_gap": 1.9921999999999995,
    "is_direct": false,
    "formula": "NaCoO2"
}