{
    "mp_id": "mp-16432",
    "nelements": 3,
    "nsites": 22,
    "elements": [
        "B",
        "O",
        "Sr"
    ],
    "structure": {
        "@module": "pymatgen.core.structure",
        "@class": "Structure",
        "charge": null,
        "lattice": {
            "matrix": [
                [
                    4.51376313,
                    2.60602278,
                    4.14568654
                ],
                [
                    -4.51376313,
                    2.60602278,
                    4.14568654
                ],
                [
                    0.0,
                    -5.21204456,
                    4.14568654
                ]
            ],
            "a": 6.65973942520002,
            "b": 6.65973942520002,
            "c": 6.659739137786311,
            "alpha": 85.33906256636237,
            "beta": 85.33906256636237,
            "gamma": 85.33905759659473,
            "volume": 292.5934695367181
        },
        "sites": [
            {
                "species": [
                    {
                        "element": "Sr",
                        "occu": 1
                    }
                ],
                "abc": [
                    0.10482715,
                    0.75,
                    0.39517285
                ],
                "xyz": [
                    -2.91215742280702,
                    0.1680405227602808,
                    5.182108175
                ],
                "label": "Sr",
                "properties": {}
            },
            {
                "species": [
                    {
                        "element": "Sr",
                        "occu": 1
                    }
                ],
                "abc": [
                    0.75,
                    0.39517285,
                    0.10482715
                ],
                "xyz": [
                    1.6016057071929792,
                    2.4379827572397192,
                    5.182108175
                ],
                "label": "Sr",
                "properties": {}
            },
            {
                "species": [
                    {
                        "element": "Sr",
                        "occu": 1
                    }
                ],
                "abc": [
                    0.39517285,
                    0.10482715,
                    0.75
                ],
                "xyz": [
                    1.3105517156140412,
                    -2.60602203,
                    5.182108175
                ],
                "label": "Sr",
                "properties": {}
            },
            {
                "species": [
                    {
                        "element": "Sr",
                        "occu": 1
                    }
                ],
                "abc": [
                    0.89517285,
                    0.25,
                    0.60482715
                ],
                "xyz": [
                    2.91215742280702,
                    -0.16803952276028067,
                    7.254951445
                ],
                "label": "Sr",
                "properties": {}
            },
            {
                "species": [
                    {
                        "element": "Sr",
                        "occu": 1
                    }
                ],
                "abc": [
                    0.25,
                    0.60482715,
                    0.89517285
                ],
                "xyz": [
                    -1.6016057071929792,
                    -2.4379817572397187,
                    7.254951445
                ],
                "label": "Sr",
                "properties": {}
            },
            {
                "species": [
                    {
                        "element": "Sr",
                        "occu": 1
                    }
                ],
                "abc": [
                    0.60482715,
                    0.89517285,
                    0.25
                ],
                "xyz": [
                    -1.3105517156140412,
                    2.6060230300000002,
                    7.254951445
                ],
                "label": "Sr",
                "properties": {}
            },
            {
                "species": [
                    {
                        "element": "B",
                        "occu": 1
                    }
                ],
                "abc": [
                    0.38500588,
                    0.38500588,
                    0.38500588
                ],
                "xyz": [
                    0.0,
                    3.8500588006584735e-07,
                    4.7883410836105655
                ],
                "label": "B",
                "properties": {}
            },
            {
                "species": [
                    {
                        "element": "B",
                        "occu": 1
                    }
                ],
                "abc": [
                    0.61499412,
                    0.61499412,
                    0.61499412
                ],
                "xyz": [
                    0.0,
                    6.149941200739306e-07,
                    7.648718536389435
                ],
                "label": "B",
                "properties": {}
            },
            {
                "species": [
                    {
                        "element": "B",
                        "occu": 1
                    }
                ],
                "abc": [
                    0.88500588,
                    0.88500588,
                    0.88500588
                ],
                "xyz": [
                    0.0,
                    8.850058801357363e-07,
                    11.006870893610564
                ],
                "label": "B",
                "properties": {}
            },
            {
                "species": [
                    {
                        "element": "B",
                        "occu": 1
                    }
                ],
                "abc": [
                    0.11499412,
                    0.11499412,
                    0.11499412
                ],
                "xyz": [
                    0.0,
                    1.1499412000404163e-07,
                    1.4301887263894344
                ],
                "label": "B",
                "properties": {}
            },
            {
                "species": [
                    {
                        "element": "O",
                        "occu": 1
                    }
                ],
                "abc": [
                    0.89630195,
                    0.72686761,
                    0.03539999
                ],
                "xyz": [
                    0.7647864768478843,
                    4.045510523859022,
                    6.875909459088857
                ],
                "label": "O",
                "properties": {}
            },
            {
                "species": [
                    {
                        "element": "O",
                        "occu": 1
                    }
                ],
                "abc": [
                    0.72686761,
                    0.03539999,
                    0.89630195
                ],
                "xyz": [
                    3.1211210487448504,
                    -2.685078972558964,
                    6.875909459088857
                ],
                "label": "O",
                "properties": {}
            },
            {
                "species": [
                    {
                        "element": "O",
                        "occu": 1
                    }
                ],
                "abc": [
                    0.03539999,
                    0.89630195,
                    0.72686761
                ],
                "xyz": [
                    -3.8859075255927347,
                    -1.3604298927305085,
                    6.875909459088857
                ],
                "label": "O",
                "properties": {}
            },
            {
                "species": [
                    {
                        "element": "O",
                        "occu": 1
                    }
                ],
                "abc": [
                    0.77313239,
                    0.60369805,
                    0.46460001
                ],
                "xyz": [
                    0.7647864768478843,
                    1.1665355361409775,
                    7.633993430911143
                ],
                "label": "O",
                "properties": {}
            },
            {
                "species": [
                    {
                        "element": "O",
                        "occu": 1
                    }
                ],
                "abc": [
                    0.46460001,
                    0.77313239,
                    0.60369805
                ],
                "xyz": [
                    -1.3926420812551492,
                    0.07905769255896411,
                    7.633993430911142
                ],
                "label": "O",
                "properties": {}
            },
            {
                "species": [
                    {
                        "element": "O",
                        "occu": 1
                    }
                ],
                "abc": [
                    0.60369805,
                    0.46460001,
                    0.77313239
                ],
                "xyz": [
                    0.627855604407265,
                    -1.2455913872694913,
                    7.633993430911142
                ],
                "label": "O",
                "properties": {}
            },
            {
                "species": [
                    {
                        "element": "O",
                        "occu": 1
                    }
                ],
                "abc": [
                    0.27313239,
                    0.96460001,
                    0.10369805
                ],
                "xyz": [
                    -3.12112104874485,
                    2.6850799725589636,
                    5.561150160911143
                ],
                "label": "O",
                "properties": {}
            },
            {
                "species": [
                    {
                        "element": "O",
                        "occu": 1
                    }
                ],
                "abc": [
                    0.10369805,
                    0.27313239,
                    0.96460001
                ],
                "xyz": [
                    -0.7647864768478843,
                    -4.045509523859022,
                    5.561150160911143
                ],
                "label": "O",
                "properties": {}
            },
            {
                "species": [
                    {
                        "element": "O",
                        "occu": 1
                    }
                ],
                "abc": [
                    0.96460001,
                    0.10369805,
                    0.27313239
                ],
                "xyz": [
                    3.8859075255927342,
                    1.3604308927305082,
                    5.561150160911143
                ],
                "label": "O",
                "properties": {}
            },
            {
                "species": [
                    {
                        "element": "O",
                        "occu": 1
                    }
                ],
                "abc": [
                    0.53539999,
                    0.22686761,
                    0.39630195
                ],
                "xyz": [
                    1.3926420812551497,
                    -0.07905669255896375,
                    4.803066189088858
                ],
                "label": "O",
                "properties": {}
            },
            {
                "species": [
                    {
                        "element": "O",
                        "occu": 1
                    }
                ],
                "abc": [
                    0.39630195,
                    0.53539999,
                    0.22686761
                ],
                "xyz": [
                    -0.6278556044072654,
                    1.2455923872694918,
                    4.803066189088857
                ],
                "label": "O",
                "properties": {}
            },
            {
                "species": [
                    {
                        "element": "O",
                        "occu": 1
                    }
                ],
                "abc": [
                    0.22686761,
                    0.39630195,
                    0.53539999
                ],
                "xyz": [
                    -0.7647864768478843,
                    -1.1665345361409776,
                    4.803066189088858
                ],
                "label": "O",
                "properties": {}
            }
        ]
    },
    "spacegroup": {
        "source": "spglib",
        "symbol": "R-3c",
        "number": 167,
        "point_group": "-3m",
        "crystal_system": "trigonal",
        "hall": "-R 3 2\"c"
    },
    "dielectric": {
        "epsilon_ionic": [
            [
                5.51908855,
                -1e-08,
                -0.0
            ],
            [
                -1e-08,
                5.51917399,
                2.094e-05
            ],
            [
                -0.0,
                2.094e-05,
                9.20864119
            ]
        ],
        "epsilon_ionic_avg": 6.74896791,
        "epsilon_ionic_eig": [
            5.51908854999883,
            5.519173989882325,
            9.208641190118847
        ],
        "epsilon_electronic": [
            [
                3.32263239,
                0.0,
                0.0
            ],
            [
                0.0,
                3.32263252,
                -2.3e-07
            ],
            [
                0.0,
                -2.3e-07,
                2.85073384
            ]
        ],
        "epsilon_electronic_avg": 3.165332916666667,
        "epsilon_electronic_eig": [
            2.8507338399998883,
            3.322632520000112,
            3.32263239
        ]
    },
    "phonon": {
        "lowest_freq": -0.019511810304802063,
        "frequency": [
            -0.019511810304802063,
            -0.019511809929029445,
            -0.007453204051887549,
            1.471865745084539,
            1.4718658065222394,
            2.787951941368822,
            2.787952024648637,
            3.5656341468837,
            3.790920662366009,
            3.855251050670589,
            4.052277708845856,
            4.052277784235597,
            4.807685047053777,
            4.8076851766838,
            5.172860940007314,
            5.1728610817471345,
            5.271310246870975,
            5.3213724746465285,
            5.541779632233705,
            5.541779676335085,
            5.662391458466588,
            5.849371368102655,
            6.160554187218664,
            6.160554246726329,
            6.484785535327363,
            7.00164743745064,
            7.001647472356731,
            7.07644411996549,
            7.210210028747248,
            7.210210147384632,
            8.089514711779636,
            8.20076421184231,
            8.200764286347601,
            8.406023577960033,
            8.412092181241409,
            8.412092181241409,
            8.849873961214026,
            9.029850463134865,
            9.058459192249389,
            9.05845920573955,
            9.294962296802206,
            9.294962323096035,
            17.057362417817515,
            17.057362417817515,
            17.308433166537867,
            17.308433307740785,
            17.388969460757668,
            17.388969460757668,
            17.693431820392743,
            17.693432096653595,
            20.218468789598475,
            20.950363870985395,
            21.48564559517643,
            21.928884707463432,
            26.033127264270448,
            26.269919067738837,
            26.481828551682426,
            26.486986031249476,
            35.47001473949235,
            35.470015256267146,
            35.56807893296803,
            35.568079139108036,
            36.314942231693884,
            36.314942770095136,
            36.48372992108576,
            36.48373015554657
        ]
    },
    "born_effective_charge": {
        "avg_abs_trace": 2.0567265151515155,
        "tensors": [
            [
                [
                    2.60977,
                    -0.03029,
                    0.0637
                ],
                [
                    -0.0303,
                    2.57476,
                    -0.03679
                ],
                [
                    0.02973,
                    -0.01717,
                    2.19949
                ]
            ],
            [
                [
                    2.60977,
                    0.03029,
                    -0.0637
                ],
                [
                    0.03034,
                    2.5748,
                    -0.03674
                ],
                [
                    -0.02973,
                    -0.01716,
                    2.19949
                ]
            ],
            [
                [
                    2.55726,
                    -0.0,
                    0.0
                ],
                [
                    -3e-05,
                    2.62731,
                    0.07354
                ],
                [
                    1e-05,
                    0.03433,
                    2.19949
                ]
            ],
            [
                [
                    2.60978,
                    -0.03034,
                    0.06366
                ],
                [
                    -0.03034,
                    2.5748,
                    -0.03674
                ],
                [
                    0.02973,
                    -0.01716,
                    2.19949
                ]
            ],
            [
                [
                    2.60978,
                    0.03034,
                    -0.06366
                ],
                [
                    0.0303,
                    2.57476,
                    -0.03679
                ],
                [
                    -0.02973,
                    -0.01717,
                    2.19949
                ]
            ],
            [
                [
                    2.55725,
                    -0.0,
                    0.0
                ],
                [
                    3e-05,
                    2.62731,
                    0.07354
                ],
                [
                    -1e-05,
                    0.03433,
                    2.19949
                ]
            ],
            [
                [
                    2.66043,
                    -0.00602,
                    1e-05
                ],
                [
                    0.00597,
                    2.66041,
                    0.0
                ],
                [
                    0.0,
                    -0.0,
                    0.57111
                ]
            ],
            [
                [
                    2.6604,
                    -0.00601,
                    -0.0
                ],
                [
                    0.00607,
                    2.6604,
                    -0.0
                ],
                [
                    0.0,
                    -0.0,
                    0.5711
                ]
            ],
            [
                [
                    2.6604,
                    0.00601,
                    0.0
                ],
                [
                    -0.00597,
                    2.66041,
                    0.0
                ],
                [
                    0.0,
                    -0.0,
                    0.57111
                ]
            ],
            [
                [
                    2.66043,
                    0.00602,
                    -1e-05
                ],
                [
                    -0.00607,
                    2.6604,
                    -0.0
                ],
                [
                    0.0,
                    -0.0,
                    0.5711
                ]
            ],
            [
                [
                    -1.98607,
                    0.33586,
                    0.08053
                ],
                [
                    0.33987,
                    -2.37964,
                    -0.1504
                ],
                [
                    0.0697,
                    -0.11629,
                    -1.29012
                ]
            ],
            [
                [
                    -2.57404,
                    -0.0005,
                    -0.17052
                ],
                [
                    0.00346,
                    -1.79177,
                    0.00547
                ],
                [
                    -0.13556,
                    -0.00222,
                    -1.29012
                ]
            ],
            [
                [
                    -1.9887,
                    -0.34149,
                    0.09004
                ],
                [
                    -0.33744,
                    -2.37705,
                    0.14495
                ],
                [
                    0.06586,
                    0.11851,
                    -1.29012
                ]
            ],
            [
                [
                    -1.98607,
                    -0.33586,
                    -0.08053
                ],
                [
                    -0.34002,
                    -2.37999,
                    -0.15048
                ],
                [
                    -0.06967,
                    -0.11629,
                    -1.2901
                ]
            ],
            [
                [
                    -2.57404,
                    0.0005,
                    0.17052
                ],
                [
                    -0.00361,
                    -1.79193,
                    0.00548
                ],
                [
                    0.13555,
                    -0.00219,
                    -1.2901
                ]
            ],
            [
                [
                    -1.9887,
                    0.34149,
                    -0.09004
                ],
                [
                    0.33747,
                    -2.3773,
                    0.14496
                ],
                [
                    -0.06588,
                    0.11848,
                    -1.2901
                ]
            ],
            [
                [
                    -2.57403,
                    -0.00047,
                    -0.17057
                ],
                [
                    0.00361,
                    -1.79193,
                    0.00548
                ],
                [
                    -0.13555,
                    -0.00219,
                    -1.2901
                ]
            ],
            [
                [
                    -1.98607,
                    0.33598,
                    0.08053
                ],
                [
                    0.34002,
                    -2.37999,
                    -0.15048
                ],
                [
                    0.06967,
                    -0.11629,
                    -1.2901
                ]
            ],
            [
                [
                    -1.98873,
                    -0.34145,
                    0.08999
                ],
                [
                    -0.33747,
                    -2.3773,
                    0.14496
                ],
                [
                    0.06588,
                    0.11848,
                    -1.2901
                ]
            ],
            [
                [
                    -2.57403,
                    0.00047,
                    0.17057
                ],
                [
                    -0.00346,
                    -1.79177,
                    0.00547
                ],
                [
                    0.13556,
                    -0.00222,
                    -1.29012
                ]
            ],
            [
                [
                    -1.98873,
                    0.34145,
                    -0.08999
                ],
                [
                    0.33744,
                    -2.37705,
                    0.14495
                ],
                [
                    -0.06586,
                    0.11851,
                    -1.29012
                ]
            ],
            [
                [
                    -1.98607,
                    -0.33598,
                    -0.08053
                ],
                [
                    -0.33987,
                    -2.37964,
                    -0.1504
                ],
                [
                    -0.0697,
                    -0.11629,
                    -1.29012
                ]
            ]
        ]
    },
    "band_gap": 4.5529,
    "is_direct": false,
    "formula": "Sr3(BO3)2"
}