{
    "mp_id": "mp-19146",
    "nelements": 3,
    "nsites": 24,
    "elements": [
        "Cr",
        "O",
        "Pb"
    ],
    "structure": {
        "@module": "pymatgen.core.structure",
        "@class": "Structure",
        "charge": null,
        "lattice": {
            "matrix": [
                [
                    6.71957764,
                    0.0,
                    0.00094553
                ],
                [
                    0.0,
                    7.3784382,
                    0.0
                ],
                [
                    -5.18216567,
                    0.0,
                    6.90826901
                ]
            ],
            "a": 6.719577706524046,
            "b": 7.3784382,
            "c": 8.635914644428402,
            "alpha": 90.0,
            "beta": 126.8669515350842,
            "gamma": 90.0,
            "volume": 342.54805057111747
        },
        "sites": [
            {
                "species": [
                    {
                        "element": "Cr",
                        "occu": 1
                    }
                ],
                "abc": [
                    0.68131807,
                    0.33468868,
                    0.79922097
                ],
                "xyz": [
                    0.43647419542185517,
                    2.469479741619576,
                    5.521877665867867
                ],
                "label": "Cr",
                "properties": {}
            },
            {
                "species": [
                    {
                        "element": "Cr",
                        "occu": 1
                    }
                ],
                "abc": [
                    0.68131807,
                    0.16531132,
                    0.29922097
                ],
                "xyz": [
                    3.027557030421855,
                    1.2197393583804241,
                    2.0677431608678662
                ],
                "label": "Cr",
                "properties": {}
            },
            {
                "species": [
                    {
                        "element": "Cr",
                        "occu": 1
                    }
                ],
                "abc": [
                    0.31868193,
                    0.83468868,
                    0.70077903
                ],
                "xyz": [
                    -1.4901450604218547,
                    6.158698841619575,
                    4.841471379132132
                ],
                "label": "Cr",
                "properties": {}
            },
            {
                "species": [
                    {
                        "element": "Cr",
                        "occu": 1
                    }
                ],
                "abc": [
                    0.31868193,
                    0.66531132,
                    0.20077903
                ],
                "xyz": [
                    1.1009377745781452,
                    4.908958458380424,
                    1.387336874132133
                ],
                "label": "Cr",
                "properties": {}
            },
            {
                "species": [
                    {
                        "element": "Pb",
                        "occu": 1
                    }
                ],
                "abc": [
                    0.1807174,
                    0.35585677,
                    0.77944834
                ],
                "xyz": [
                    -2.824885828887551,
                    2.625667185496614,
                    5.384809685841165
                ],
                "label": "Pb",
                "properties": {}
            },
            {
                "species": [
                    {
                        "element": "Pb",
                        "occu": 1
                    }
                ],
                "abc": [
                    0.8192826,
                    0.85585677,
                    0.72055166
                ],
                "xyz": [
                    1.7712149638875512,
                    6.314886285496614,
                    4.978539359158835
                ],
                "label": "Pb",
                "properties": {}
            },
            {
                "species": [
                    {
                        "element": "Pb",
                        "occu": 1
                    }
                ],
                "abc": [
                    0.8192826,
                    0.64414323,
                    0.22055166
                ],
                "xyz": [
                    4.3622977988875515,
                    4.752771014503385,
                    1.5244048541588346
                ],
                "label": "Pb",
                "properties": {}
            },
            {
                "species": [
                    {
                        "element": "Pb",
                        "occu": 1
                    }
                ],
                "abc": [
                    0.1807174,
                    0.14414323,
                    0.27944834
                ],
                "xyz": [
                    -0.23380299388755188,
                    1.063551914503386,
                    1.9306751808411655
                ],
                "label": "Pb",
                "properties": {}
            },
            {
                "species": [
                    {
                        "element": "O",
                        "occu": 1
                    }
                ],
                "abc": [
                    0.39467644,
                    0.28592383,
                    0.61176828
                ],
                "xyz": [
                    -0.5182255973521461,
                    2.1096713095623056,
                    4.226633028439316
                ],
                "label": "O",
                "properties": {}
            },
            {
                "species": [
                    {
                        "element": "O",
                        "occu": 1
                    }
                ],
                "abc": [
                    0.60532356,
                    0.78592383,
                    0.88823172
                ],
                "xyz": [
                    -0.5354452676478534,
                    5.798890409562306,
                    6.136716016560683
                ],
                "label": "O",
                "properties": {}
            },
            {
                "species": [
                    {
                        "element": "O",
                        "occu": 1
                    }
                ],
                "abc": [
                    0.60532356,
                    0.71407617,
                    0.38823172
                ],
                "xyz": [
                    2.055637567352146,
                    5.268766890437694,
                    2.682581511560684
                ],
                "label": "O",
                "properties": {}
            },
            {
                "species": [
                    {
                        "element": "O",
                        "occu": 1
                    }
                ],
                "abc": [
                    0.39467644,
                    0.21407617,
                    0.11176828
                ],
                "xyz": [
                    2.0728572376478542,
                    1.579547790437694,
                    0.7724985234393159
                ],
                "label": "O",
                "properties": {}
            },
            {
                "species": [
                    {
                        "element": "O",
                        "occu": 1
                    }
                ],
                "abc": [
                    0.65223142,
                    0.40148288,
                    0.96902357
                ],
                "xyz": [
                    -0.6389210119373923,
                    2.962316618438016,
                    6.694892202965118
                ],
                "label": "O",
                "properties": {}
            },
            {
                "species": [
                    {
                        "element": "O",
                        "occu": 1
                    }
                ],
                "abc": [
                    0.34776858,
                    0.90148288,
                    0.53097643
                ],
                "xyz": [
                    -0.41474985306260725,
                    6.651535718438016,
                    3.6684568420348818
                ],
                "label": "O",
                "properties": {}
            },
            {
                "species": [
                    {
                        "element": "O",
                        "occu": 1
                    }
                ],
                "abc": [
                    0.34776858,
                    0.59851712,
                    0.03097643
                ],
                "xyz": [
                    2.176332981937393,
                    4.416121581561984,
                    0.21432233703488168
                ],
                "label": "O",
                "properties": {}
            },
            {
                "species": [
                    {
                        "element": "O",
                        "occu": 1
                    }
                ],
                "abc": [
                    0.65223142,
                    0.09851712,
                    0.46902357
                ],
                "xyz": [
                    1.9521618230626072,
                    0.726902481561984,
                    3.240757697965118
                ],
                "label": "O",
                "properties": {}
            },
            {
                "species": [
                    {
                        "element": "O",
                        "occu": 1
                    }
                ],
                "abc": [
                    0.81045438,
                    0.00752164,
                    0.24914779
                ],
                "xyz": [
                    4.154786005993694,
                    0.05549795590264799,
                    1.7219462654969093
                ],
                "label": "O",
                "properties": {}
            },
            {
                "species": [
                    {
                        "element": "O",
                        "occu": 1
                    }
                ],
                "abc": [
                    0.18954562,
                    0.50752164,
                    0.25085221
                ],
                "xyz": [
                    -0.026291200993694197,
                    3.744717055902648,
                    1.7331337695030908
                ],
                "label": "O",
                "properties": {}
            },
            {
                "species": [
                    {
                        "element": "O",
                        "occu": 1
                    }
                ],
                "abc": [
                    0.18954562,
                    0.99247836,
                    0.75085221
                ],
                "xyz": [
                    -2.617374035993694,
                    7.322940244097352,
                    5.187268274503091
                ],
                "label": "O",
                "properties": {}
            },
            {
                "species": [
                    {
                        "element": "O",
                        "occu": 1
                    }
                ],
                "abc": [
                    0.81045438,
                    0.49247836,
                    0.74914779
                ],
                "xyz": [
                    1.5637031709936946,
                    3.633721144097352,
                    5.176080770496909
                ],
                "label": "O",
                "properties": {}
            },
            {
                "species": [
                    {
                        "element": "O",
                        "occu": 1
                    }
                ],
                "abc": [
                    0.86300797,
                    0.34700707,
                    0.37713741
                ],
                "xyz": [
                    3.844660519379076,
                    2.560370220958074,
                    2.606182681940538
                ],
                "label": "O",
                "properties": {}
            },
            {
                "species": [
                    {
                        "element": "O",
                        "occu": 1
                    }
                ],
                "abc": [
                    0.13699203,
                    0.84700707,
                    0.12286259
                ],
                "xyz": [
                    0.28383428562092383,
                    6.249589320958074,
                    0.8488973530594617
                ],
                "label": "O",
                "properties": {}
            },
            {
                "species": [
                    {
                        "element": "O",
                        "occu": 1
                    }
                ],
                "abc": [
                    0.13699203,
                    0.65299293,
                    0.62286259
                ],
                "xyz": [
                    -2.307248549379076,
                    4.818067979041926,
                    4.3030318580594615
                ],
                "label": "O",
                "properties": {}
            },
            {
                "species": [
                    {
                        "element": "O",
                        "occu": 1
                    }
                ],
                "abc": [
                    0.86300797,
                    0.15299293,
                    0.87713741
                ],
                "xyz": [
                    1.253577684379076,
                    1.128848879041926,
                    6.060317186940538
                ],
                "label": "O",
                "properties": {}
            }
        ]
    },
    "spacegroup": {
        "source": "spglib",
        "symbol": "P2_1/c",
        "number": 14,
        "point_group": "2/m",
        "crystal_system": "monoclinic",
        "hall": "-P 2ybc"
    },
    "dielectric": {
        "epsilon_ionic": [
            [
                17.51046485,
                -1e-08,
                -1.99356232
            ],
            [
                -1e-08,
                17.93776997,
                -4e-08
            ],
            [
                -1.99356232,
                -4e-08,
                16.82671608
            ]
        ],
        "epsilon_ionic_avg": 17.42498363333333,
        "epsilon_ionic_eig": [
            15.145926672165677,
            19.191254257834316,
            17.937769969999994
        ],
        "epsilon_electronic": [
            [
                6.28089416,
                0.0,
                -0.11623313
            ],
            [
                0.0,
                5.28665178,
                0.0
            ],
            [
                -0.1162406,
                0.0,
                4.96705304
            ]
        ],
        "epsilon_electronic_avg": 5.511532993333333,
        "epsilon_electronic_eig": [
            6.291098499041995,
            4.956848700958005,
            5.28665178
        ]
    },
    "phonon": {
        "lowest_freq": -0.08161303717460854,
        "frequency": [
            -0.08161303717460854,
            -0.0688806701239354,
            -0.024950219913601246,
            1.3917135413677966,
            1.4041476743421513,
            1.4995625217150985,
            1.6020616976005948,
            1.68812929432401,
            1.7323450642414653,
            1.7684500400887062,
            1.7774293073118257,
            1.883322538288239,
            2.371492117293291,
            2.4398547545325306,
            2.446871671570435,
            2.667241879943312,
            2.8630262000187328,
            2.9408499326689164,
            3.0679176700121293,
            3.2332244828734193,
            3.3739992228834783,
            3.400900679676423,
            3.498958950672429,
            3.7554839572166774,
            3.8348201643584297,
            4.1024558163136255,
            4.280544023528034,
            4.477639411953954,
            4.549020374854885,
            4.794835593643909,
            4.81137278885553,
            4.920474600354031,
            5.325780703705748,
            5.5740276409970635,
            5.768701296270648,
            5.787258090746256,
            9.259242651890542,
            9.370248432641516,
            9.506853592208653,
            9.841920820262704,
            10.005781205542103,
            10.215234242497296,
            10.234280408359448,
            10.239194726961372,
            10.455183873514294,
            10.588615619584715,
            10.830105615639786,
            10.972112130322925,
            10.995216436601096,
            11.068977297151584,
            11.152624164885447,
            11.381413433713718,
            11.752993952983743,
            11.846847258858386,
            11.87994170218716,
            12.528070285871081,
            25.38040796898206,
            25.515410615053845,
            25.573989455540993,
            25.590704203128094,
            25.771833107070638,
            25.79907966138121,
            25.82821796143183,
            26.006897281446015,
            26.23132533792324,
            26.46468775120313,
            26.576698095577644,
            26.746176507812446,
            27.069348262106555,
            27.375385765739804,
            27.42594699858231,
            27.54473355086875
        ]
    },
    "born_effective_charge": {
        "avg_abs_trace": 2.3295430555555554,
        "tensors": [
            [
                [
                    3.49089,
                    0.29416,
                    -0.36951
                ],
                [
                    -0.20851,
                    3.12541,
                    -0.07438
                ],
                [
                    0.00887,
                    -0.1536,
                    2.68515
                ]
            ],
            [
                [
                    3.49089,
                    -0.29416,
                    -0.36951
                ],
                [
                    0.20864,
                    3.12475,
                    0.07426
                ],
                [
                    0.00887,
                    0.1536,
                    2.68515
                ]
            ],
            [
                [
                    3.49097,
                    -0.2944,
                    -0.36948
                ],
                [
                    0.20851,
                    3.12541,
                    0.07438
                ],
                [
                    0.00905,
                    0.15385,
                    2.68511
                ]
            ],
            [
                [
                    3.49097,
                    0.2944,
                    -0.36948
                ],
                [
                    -0.20864,
                    3.12475,
                    -0.07426
                ],
                [
                    0.00905,
                    -0.15385,
                    2.68511
                ]
            ],
            [
                [
                    4.11812,
                    -0.82551,
                    -0.02314
                ],
                [
                    0.00764,
                    3.85521,
                    -0.00753
                ],
                [
                    -0.20771,
                    0.14269,
                    3.69129
                ]
            ],
            [
                [
                    4.11829,
                    0.82572,
                    -0.02349
                ],
                [
                    -0.00764,
                    3.85521,
                    0.00753
                ],
                [
                    -0.20757,
                    -0.14273,
                    3.69114
                ]
            ],
            [
                [
                    4.11829,
                    -0.82572,
                    -0.02349
                ],
                [
                    0.00786,
                    3.85545,
                    -0.00724
                ],
                [
                    -0.20757,
                    0.14273,
                    3.69114
                ]
            ],
            [
                [
                    4.11812,
                    0.82551,
                    -0.02314
                ],
                [
                    -0.00786,
                    3.85545,
                    0.00724
                ],
                [
                    -0.20771,
                    -0.14269,
                    3.69129
                ]
            ],
            [
                [
                    -1.59355,
                    -0.32833,
                    -1.10018
                ],
                [
                    -0.2228,
                    -0.66463,
                    -0.73125
                ],
                [
                    -0.7059,
                    -0.68398,
                    -2.43573
                ]
            ],
            [
                [
                    -1.59292,
                    0.32814,
                    -1.09957
                ],
                [
                    0.2228,
                    -0.66463,
                    0.73125
                ],
                [
                    -0.70619,
                    0.68395,
                    -2.43599
                ]
            ],
            [
                [
                    -1.59292,
                    -0.32814,
                    -1.09957
                ],
                [
                    -0.22304,
                    -0.66417,
                    -0.7318
                ],
                [
                    -0.70619,
                    -0.68395,
                    -2.43599
                ]
            ],
            [
                [
                    -1.59355,
                    0.32833,
                    -1.10018
                ],
                [
                    0.22304,
                    -0.66417,
                    0.7318
                ],
                [
                    -0.7059,
                    0.68398,
                    -2.43573
                ]
            ],
            [
                [
                    -2.23674,
                    0.83576,
                    1.52434
                ],
                [
                    0.56956,
                    -1.15454,
                    -1.0134
                ],
                [
                    0.9893,
                    -0.85713,
                    -2.05021
                ]
            ],
            [
                [
                    -2.2372,
                    -0.83574,
                    1.52454
                ],
                [
                    -0.56956,
                    -1.15454,
                    1.0134
                ],
                [
                    0.98897,
                    0.85665,
                    -2.04991
                ]
            ],
            [
                [
                    -2.2372,
                    0.83574,
                    1.52454
                ],
                [
                    0.56909,
                    -1.15468,
                    -1.01342
                ],
                [
                    0.98897,
                    -0.85665,
                    -2.04991
                ]
            ],
            [
                [
                    -2.23674,
                    -0.83576,
                    1.52434
                ],
                [
                    -0.56909,
                    -1.15468,
                    1.01342
                ],
                [
                    0.9893,
                    0.85713,
                    -2.05021
                ]
            ],
            [
                [
                    -2.67182,
                    1.38745,
                    0.38636
                ],
                [
                    1.08334,
                    -2.23861,
                    -0.34528
                ],
                [
                    0.2436,
                    -0.51606,
                    -0.50744
                ]
            ],
            [
                [
                    -2.67154,
                    -1.38721,
                    0.38618
                ],
                [
                    -1.08334,
                    -2.23861,
                    0.34528
                ],
                [
                    0.24341,
                    0.51568,
                    -0.50699
                ]
            ],
            [
                [
                    -2.67154,
                    1.38721,
                    0.38618
                ],
                [
                    1.08365,
                    -2.23825,
                    -0.34565
                ],
                [
                    0.24341,
                    -0.51568,
                    -0.50699
                ]
            ],
            [
                [
                    -2.67182,
                    -1.38745,
                    0.38636
                ],
                [
                    -1.08365,
                    -2.23825,
                    0.34565
                ],
                [
                    0.2436,
                    0.51606,
                    -0.50744
                ]
            ],
            [
                [
                    -1.10721,
                    -1.30177,
                    -0.41795
                ],
                [
                    -1.16499,
                    -2.92248,
                    -0.44404
                ],
                [
                    -0.32774,
                    -0.302,
                    -1.38303
                ]
            ],
            [
                [
                    -1.10727,
                    1.30149,
                    -0.41809
                ],
                [
                    1.16499,
                    -2.92248,
                    0.44404
                ],
                [
                    -0.3281,
                    0.30245,
                    -1.38339
                ]
            ],
            [
                [
                    -1.10727,
                    -1.30149,
                    -0.41809
                ],
                [
                    -1.16463,
                    -2.92347,
                    -0.44344
                ],
                [
                    -0.3281,
                    -0.30245,
                    -1.38339
                ]
            ],
            [
                [
                    -1.10721,
                    1.30177,
                    -0.41795
                ],
                [
                    1.16463,
                    -2.92347,
                    0.44344
                ],
                [
                    -0.32774,
                    0.302,
                    -1.38303
                ]
            ]
        ]
    },
    "band_gap": 1.8082000000000003,
    "is_direct": false,
    "formula": "CrPbO4"
}