{
    "mp_id": "mp-14363",
    "nelements": 4,
    "nsites": 16,
    "elements": [
        "As",
        "Li",
        "O",
        "Rb"
    ],
    "structure": {
        "@module": "pymatgen.core.structure",
        "@class": "Structure",
        "charge": null,
        "lattice": {
            "matrix": [
                [
                    2.90220559,
                    -5.87687457,
                    0.0
                ],
                [
                    2.90220559,
                    5.87687457,
                    0.0
                ],
                [
                    0.0,
                    0.0,
                    7.84851161
                ]
            ],
            "a": 6.554422323755156,
            "b": 6.554422323755156,
            "c": 7.84851161,
            "alpha": 90.0,
            "beta": 90.0,
            "gamma": 127.43646770710353,
            "volume": 267.7268305351612
        },
        "sites": [
            {
                "species": [
                    {
                        "element": "Rb",
                        "occu": 1
                    }
                ],
                "abc": [
                    0.94194345,
                    0.05805655,
                    0.15073237
                ],
                "xyz": [
                    2.90220559,
                    -5.194492445366134,
                    1.1830247559478158
                ],
                "label": "Rb",
                "properties": {}
            },
            {
                "species": [
                    {
                        "element": "Rb",
                        "occu": 1
                    }
                ],
                "abc": [
                    0.05805655,
                    0.94194345,
                    0.65073237
                ],
                "xyz": [
                    2.90220559,
                    5.194492445366134,
                    5.107280560947816
                ],
                "label": "Rb",
                "properties": {}
            },
            {
                "species": [
                    {
                        "element": "Rb",
                        "occu": 1
                    }
                ],
                "abc": [
                    0.39761979,
                    0.60238021,
                    0.5030493
                ],
                "xyz": [
                    2.90220559,
                    1.2033513052405191,
                    3.9481882714523735
                ],
                "label": "Rb",
                "properties": {}
            },
            {
                "species": [
                    {
                        "element": "Rb",
                        "occu": 1
                    }
                ],
                "abc": [
                    0.60238021,
                    0.39761979,
                    0.0030493
                ],
                "xyz": [
                    2.90220559,
                    -1.2033513052405191,
                    0.023932466452373
                ],
                "label": "Rb",
                "properties": {}
            },
            {
                "species": [
                    {
                        "element": "Li",
                        "occu": 1
                    }
                ],
                "abc": [
                    0.20357296,
                    0.79642704,
                    0.23095495
                ],
                "xyz": [
                    2.90220559,
                    3.4841290664727453,
                    1.8126526064619695
                ],
                "label": "Li",
                "properties": {}
            },
            {
                "species": [
                    {
                        "element": "Li",
                        "occu": 1
                    }
                ],
                "abc": [
                    0.79642704,
                    0.20357296,
                    0.73095495
                ],
                "xyz": [
                    2.90220559,
                    -3.4841290664727453,
                    5.736908411461969
                ],
                "label": "Li",
                "properties": {}
            },
            {
                "species": [
                    {
                        "element": "As",
                        "occu": 1
                    }
                ],
                "abc": [
                    0.31231312,
                    0.68768688,
                    0.94434708
                ],
                "xyz": [
                    2.90220559,
                    2.2060245043892834,
                    7.411719021249599
                ],
                "label": "As",
                "properties": {}
            },
            {
                "species": [
                    {
                        "element": "As",
                        "occu": 1
                    }
                ],
                "abc": [
                    0.68768688,
                    0.31231312,
                    0.44434708
                ],
                "xyz": [
                    2.90220559,
                    -2.2060245043892834,
                    3.487463216249599
                ],
                "label": "As",
                "properties": {}
            },
            {
                "species": [
                    {
                        "element": "O",
                        "occu": 1
                    }
                ],
                "abc": [
                    0.59910722,
                    0.88018221,
                    0.83871617
                ],
                "xyz": [
                    4.293202052973914,
                    1.6518424609940041,
                    6.582673597739734
                ],
                "label": "O",
                "properties": {}
            },
            {
                "species": [
                    {
                        "element": "O",
                        "occu": 1
                    }
                ],
                "abc": [
                    0.40089278,
                    0.11981779,
                    0.33871617
                ],
                "xyz": [
                    1.5112091270260861,
                    -1.6518424609940046,
                    2.6584177927397334
                ],
                "label": "O",
                "properties": {}
            },
            {
                "species": [
                    {
                        "element": "O",
                        "occu": 1
                    }
                ],
                "abc": [
                    0.36704381,
                    0.63295619,
                    0.14818792
                ],
                "xyz": [
                    2.9022055900000003,
                    1.5627337038701765,
                    1.1630546105817512
                ],
                "label": "O",
                "properties": {}
            },
            {
                "species": [
                    {
                        "element": "O",
                        "occu": 1
                    }
                ],
                "abc": [
                    0.63295619,
                    0.36704381,
                    0.64818792
                ],
                "xyz": [
                    2.9022055900000003,
                    -1.5627337038701765,
                    5.087310415581752
                ],
                "label": "O",
                "properties": {}
            },
            {
                "species": [
                    {
                        "element": "O",
                        "occu": 1
                    }
                ],
                "abc": [
                    0.11981779,
                    0.40089278,
                    0.83871617
                ],
                "xyz": [
                    1.5112091270260861,
                    1.6518424609940046,
                    6.582673597739734
                ],
                "label": "O",
                "properties": {}
            },
            {
                "species": [
                    {
                        "element": "O",
                        "occu": 1
                    }
                ],
                "abc": [
                    0.88018221,
                    0.59910722,
                    0.33871617
                ],
                "xyz": [
                    4.293202052973914,
                    -1.6518424609940041,
                    2.6584177927397334
                ],
                "label": "O",
                "properties": {}
            },
            {
                "species": [
                    {
                        "element": "O",
                        "occu": 1
                    }
                ],
                "abc": [
                    0.8330958,
                    0.1669042,
                    0.47439603
                ],
                "xyz": [
                    2.9022055900000003,
                    -3.915124472787612,
                    3.7233027491929085
                ],
                "label": "O",
                "properties": {}
            },
            {
                "species": [
                    {
                        "element": "O",
                        "occu": 1
                    }
                ],
                "abc": [
                    0.1669042,
                    0.8330958,
                    0.97439603
                ],
                "xyz": [
                    2.9022055900000003,
                    3.915124472787612,
                    7.6475585541929085
                ],
                "label": "O",
                "properties": {}
            }
        ]
    },
    "spacegroup": {
        "source": "spglib",
        "symbol": "Cmc2_1",
        "number": 36,
        "point_group": "mm2",
        "crystal_system": "orthorhombic",
        "hall": "C 2c -2"
    },
    "dielectric": {
        "epsilon_ionic": [
            [
                5.34452796,
                0.0,
                -7.58e-06
            ],
            [
                0.0,
                5.59448644,
                3.4e-07
            ],
            [
                -7.58e-06,
                3.4e-07,
                4.89194288
            ]
        ],
        "epsilon_ionic_avg": 5.276985760000001,
        "epsilon_ionic_eig": [
            5.344527960126952,
            4.891942879872885,
            5.594486440000165
        ],
        "epsilon_electronic": [
            [
                2.72075485,
                0.0,
                0.0
            ],
            [
                0.0,
                2.70992628,
                0.0
            ],
            [
                0.0,
                0.0,
                2.73950882
            ]
        ],
        "epsilon_electronic_avg": 2.72339665,
        "epsilon_electronic_eig": [
            2.72075485,
            2.70992628,
            2.73950882
        ]
    },
    "phonon": {
        "lowest_freq": -0.047585215554541725,
        "frequency": [
            -0.047585215554541725,
            -0.036805629483340443,
            -0.026548201791635886,
            1.3197740029238512,
            1.7629828336054785,
            1.8598257054275988,
            2.086517865725651,
            2.144800365993262,
            2.455198059196547,
            2.5211786584384814,
            2.5835691375205223,
            2.6184547610098154,
            2.6766401185909148,
            2.7112747049011245,
            2.9317211395238325,
            3.050968963776157,
            3.075499884542489,
            3.301908864215056,
            3.384805744915688,
            3.629680279913081,
            4.233939773371982,
            4.441038137326328,
            5.015056288829847,
            5.759929257240357,
            8.341184343659075,
            8.63968628214018,
            9.399214258105532,
            9.499769821300424,
            10.25116060752532,
            10.30643400337401,
            10.34199937060538,
            10.67765670133474,
            11.037965950726717,
            11.782483203539309,
            11.934828671860094,
            12.295258093917571,
            14.383691485960705,
            14.930052722252887,
            15.284210327163601,
            15.657254115017265,
            22.8316550896863,
            23.053220004877815,
            23.266622094509195,
            23.713389946175326,
            23.98948586046985,
            24.04276295082917,
            24.48407390451288,
            25.359600629667717
        ]
    },
    "born_effective_charge": {
        "avg_abs_trace": 1.5976004166666666,
        "tensors": [
            [
                [
                    1.31364,
                    -0.0,
                    -0.0
                ],
                [
                    0.0,
                    1.26052,
                    -0.05671
                ],
                [
                    -0.0,
                    0.01614,
                    1.23755
                ]
            ],
            [
                [
                    1.31364,
                    0.0,
                    -0.0
                ],
                [
                    0.0,
                    1.26052,
                    0.0567
                ],
                [
                    -0.0,
                    -0.01614,
                    1.23755
                ]
            ],
            [
                [
                    1.17129,
                    -0.0,
                    -0.0
                ],
                [
                    0.0,
                    1.16621,
                    0.02271
                ],
                [
                    -0.0,
                    0.00567,
                    1.37825
                ]
            ],
            [
                [
                    1.17129,
                    0.0,
                    -0.0
                ],
                [
                    0.0,
                    1.16621,
                    -0.0227
                ],
                [
                    -0.0,
                    -0.00567,
                    1.37825
                ]
            ],
            [
                [
                    1.11454,
                    0.0,
                    -0.0
                ],
                [
                    0.0,
                    0.81052,
                    -0.13864
                ],
                [
                    -0.0,
                    -0.24458,
                    1.08997
                ]
            ],
            [
                [
                    1.11454,
                    -0.0,
                    -0.0
                ],
                [
                    0.0,
                    0.81052,
                    0.13864
                ],
                [
                    -0.0,
                    0.24458,
                    1.08997
                ]
            ],
            [
                [
                    2.88448,
                    -0.0,
                    0.0
                ],
                [
                    0.0,
                    2.83594,
                    -0.03335
                ],
                [
                    -0.0,
                    -0.10907,
                    2.9083
                ]
            ],
            [
                [
                    2.88448,
                    0.0,
                    0.0
                ],
                [
                    0.0,
                    2.83594,
                    0.03335
                ],
                [
                    -0.0,
                    0.10907,
                    2.9083
                ]
            ],
            [
                [
                    -1.98029,
                    -0.18607,
                    0.42807
                ],
                [
                    -0.17986,
                    -1.26078,
                    0.08022
                ],
                [
                    0.44661,
                    0.11489,
                    -1.57814
                ]
            ],
            [
                [
                    -1.9803,
                    -0.18608,
                    -0.42807
                ],
                [
                    -0.17986,
                    -1.26078,
                    -0.08022
                ],
                [
                    -0.44661,
                    -0.11489,
                    -1.57814
                ]
            ],
            [
                [
                    -1.25236,
                    0.0,
                    0.0
                ],
                [
                    0.0,
                    -1.42033,
                    -0.30036
                ],
                [
                    -0.0,
                    -0.19438,
                    -2.07999
                ]
            ],
            [
                [
                    -1.25236,
                    -0.0,
                    0.0
                ],
                [
                    0.0,
                    -1.42033,
                    0.30037
                ],
                [
                    -0.0,
                    0.19438,
                    -2.07999
                ]
            ],
            [
                [
                    -1.9803,
                    0.18608,
                    -0.42807
                ],
                [
                    0.17986,
                    -1.26078,
                    0.08022
                ],
                [
                    -0.44661,
                    0.11489,
                    -1.57814
                ]
            ],
            [
                [
                    -1.98029,
                    0.18607,
                    0.42807
                ],
                [
                    0.17986,
                    -1.26078,
                    -0.08022
                ],
                [
                    0.44661,
                    -0.11489,
                    -1.57814
                ]
            ],
            [
                [
                    -1.271,
                    -1e-05,
                    0.0
                ],
                [
                    0.0,
                    -2.13129,
                    -0.11714
                ],
                [
                    -0.0,
                    -0.08183,
                    -1.3778
                ]
            ],
            [
                [
                    -1.271,
                    1e-05,
                    0.0
                ],
                [
                    0.0,
                    -2.13129,
                    0.11713
                ],
                [
                    -0.0,
                    0.08183,
                    -1.3778
                ]
            ]
        ]
    },
    "band_gap": 3.693,
    "is_direct": false,
    "formula": "Rb2LiAsO4"
}