{
    "mp_id": "mp-15733",
    "nelements": 4,
    "nsites": 16,
    "elements": [
        "Al",
        "Ca",
        "O",
        "Ta"
    ],
    "structure": {
        "@module": "pymatgen.core.structure",
        "@class": "Structure",
        "charge": null,
        "lattice": {
            "matrix": [
                [
                    3.35635325,
                    -4.47482592,
                    0.0003937
                ],
                [
                    3.35635325,
                    4.47482592,
                    0.0003937
                ],
                [
                    -3.04756933,
                    0.0,
                    6.72047303
                ]
            ],
            "a": 5.593672702982281,
            "b": 5.593672702982281,
            "c": 7.379189424870053,
            "alpha": 104.34405544380223,
            "beta": 104.34405544380223,
            "gamma": 106.25637247860256,
            "volume": 201.88160423551878
        },
        "sites": [
            {
                "species": [
                    {
                        "element": "Ca",
                        "occu": 1
                    }
                ],
                "abc": [
                    0.33318743,
                    0.66681257,
                    0.25
                ],
                "xyz": [
                    2.5944609175,
                    1.4929144240356291,
                    1.6805119575
                ],
                "label": "Ca",
                "properties": {}
            },
            {
                "species": [
                    {
                        "element": "Ca",
                        "occu": 1
                    }
                ],
                "abc": [
                    0.66681257,
                    0.33318743,
                    0.75
                ],
                "xyz": [
                    1.0706762525000002,
                    -1.4929144240356291,
                    5.0407484725
                ],
                "label": "Ca",
                "properties": {}
            },
            {
                "species": [
                    {
                        "element": "Ta",
                        "occu": 1
                    }
                ],
                "abc": [
                    0.0,
                    0.0,
                    0.5
                ],
                "xyz": [
                    -1.523784665,
                    0.0,
                    3.360236515
                ],
                "label": "Ta",
                "properties": {}
            },
            {
                "species": [
                    {
                        "element": "Ta",
                        "occu": 1
                    }
                ],
                "abc": [
                    0.0,
                    0.0,
                    0.0
                ],
                "xyz": [
                    0.0,
                    0.0,
                    0.0
                ],
                "label": "Ta",
                "properties": {}
            },
            {
                "species": [
                    {
                        "element": "Al",
                        "occu": 1
                    }
                ],
                "abc": [
                    0.68358531,
                    0.31641469,
                    0.25
                ],
                "xyz": [
                    2.5944609175,
                    -1.6430246074384705,
                    1.6805119575
                ],
                "label": "Al",
                "properties": {}
            },
            {
                "species": [
                    {
                        "element": "Al",
                        "occu": 1
                    }
                ],
                "abc": [
                    0.31641469,
                    0.68358531,
                    0.75
                ],
                "xyz": [
                    1.0706762525000002,
                    1.6430246074384705,
                    5.0407484725
                ],
                "label": "Al",
                "properties": {}
            },
            {
                "species": [
                    {
                        "element": "O",
                        "occu": 1
                    }
                ],
                "abc": [
                    0.07672507,
                    0.92327493,
                    0.25
                ],
                "xyz": [
                    2.5944609175,
                    3.788163256100371,
                    1.6805119575
                ],
                "label": "O",
                "properties": {}
            },
            {
                "species": [
                    {
                        "element": "O",
                        "occu": 1
                    }
                ],
                "abc": [
                    0.92327493,
                    0.07672507,
                    0.75
                ],
                "xyz": [
                    1.0706762525000002,
                    -3.788163256100371,
                    5.0407484725
                ],
                "label": "O",
                "properties": {}
            },
            {
                "species": [
                    {
                        "element": "O",
                        "occu": 1
                    }
                ],
                "abc": [
                    0.09760971,
                    0.68980692,
                    0.88618383
                ],
                "xyz": [
                    -0.05785829584538593,
                    2.649979425059683,
                    5.955884535064336
                ],
                "label": "O",
                "properties": {}
            },
            {
                "species": [
                    {
                        "element": "O",
                        "occu": 1
                    }
                ],
                "abc": [
                    0.31019308,
                    0.90239029,
                    0.61381617
                ],
                "xyz": [
                    2.1992108008453872,
                    2.6499794250596835,
                    4.125612409935664
                ],
                "label": "O",
                "properties": {}
            },
            {
                "species": [
                    {
                        "element": "O",
                        "occu": 1
                    }
                ],
                "abc": [
                    0.90239029,
                    0.31019308,
                    0.11381617
                ],
                "xyz": [
                    3.7229954658453868,
                    -2.6499794250596835,
                    0.765375894935664
                ],
                "label": "O",
                "properties": {}
            },
            {
                "species": [
                    {
                        "element": "O",
                        "occu": 1
                    }
                ],
                "abc": [
                    0.68980692,
                    0.09760971,
                    0.38618383
                ],
                "xyz": [
                    1.4659263691546138,
                    -2.649979425059683,
                    2.5956480200643357
                ],
                "label": "O",
                "properties": {}
            },
            {
                "species": [
                    {
                        "element": "O",
                        "occu": 1
                    }
                ],
                "abc": [
                    0.36760936,
                    0.25304886,
                    0.08592447
                ],
                "xyz": [
                    1.8212874543677102,
                    -0.51263829480816,
                    0.5776974363932581
                ],
                "label": "O",
                "properties": {}
            },
            {
                "species": [
                    {
                        "element": "O",
                        "occu": 1
                    }
                ],
                "abc": [
                    0.74695114,
                    0.63239064,
                    0.41407553
                ],
                "xyz": [
                    3.367634380632291,
                    -0.5126382948081596,
                    2.783326478606742
                ],
                "label": "O",
                "properties": {}
            },
            {
                "species": [
                    {
                        "element": "O",
                        "occu": 1
                    }
                ],
                "abc": [
                    0.63239064,
                    0.74695114,
                    0.91407553
                ],
                "xyz": [
                    1.8438497156322908,
                    0.5126382948081596,
                    6.143562993606741
                ],
                "label": "O",
                "properties": {}
            },
            {
                "species": [
                    {
                        "element": "O",
                        "occu": 1
                    }
                ],
                "abc": [
                    0.25304886,
                    0.36760936,
                    0.58592447
                ],
                "xyz": [
                    0.29750278936771,
                    0.51263829480816,
                    3.937933951393258
                ],
                "label": "O",
                "properties": {}
            }
        ]
    },
    "spacegroup": {
        "source": "spglib",
        "symbol": "C2/c",
        "number": 15,
        "point_group": "2/m",
        "crystal_system": "monoclinic",
        "hall": "-C 2yc"
    },
    "dielectric": {
        "epsilon_ionic": [
            [
                15.0478258,
                -0.0,
                -9.90584758
            ],
            [
                -0.0,
                7.58139291,
                -0.0
            ],
            [
                -9.90584758,
                -0.0,
                30.1427582
            ]
        ],
        "epsilon_ionic_avg": 17.59065897,
        "epsilon_ionic_eig": [
            10.141775937524539,
            35.04880806247546,
            7.58139291
        ],
        "epsilon_electronic": [
            [
                3.8052382,
                0.0,
                -0.03237855
            ],
            [
                0.0,
                3.76135672,
                0.0
            ],
            [
                -0.03237665,
                0.0,
                3.96197956
            ]
        ],
        "epsilon_electronic_avg": 3.84285816,
        "epsilon_electronic_eig": [
            3.7988134056837373,
            3.968404354316262,
            3.76135672
        ]
    },
    "phonon": {
        "lowest_freq": -0.04112880570833404,
        "frequency": [
            -0.04112880570833404,
            -0.02541187358970972,
            -0.016938175691199982,
            0.7122059962263337,
            1.642202498630143,
            3.168443544563946,
            3.423270595169558,
            3.7618206216467556,
            4.493070043580338,
            4.822265298082083,
            4.899802538911695,
            6.180928807555805,
            6.2671307638098055,
            6.41911952488345,
            6.71971768405051,
            7.3764559376876555,
            7.6679612284695,
            7.898631238372355,
            7.953733642881653,
            8.244171494534005,
            8.303348261433781,
            8.675156368023446,
            8.685841093976263,
            9.233698190376693,
            10.132214283636063,
            10.392550794912573,
            11.108674901421924,
            11.431807282635901,
            11.937841029873207,
            12.826030046560296,
            13.381712084917844,
            14.033241068281926,
            14.929065328016915,
            14.94254194050908,
            15.225877631097106,
            15.4536076866253,
            15.532684446911977,
            16.15593066131325,
            17.731827989530984,
            21.061890447684224,
            21.40701357415079,
            21.826759688472247,
            22.129707048198828,
            22.658233079483768,
            22.771937943134482,
            24.271804925229716,
            25.563965973152285,
            27.22832076351526
        ]
    },
    "born_effective_charge": {
        "avg_abs_trace": 2.954156041666667,
        "tensors": [
            [
                [
                    2.53903,
                    1e-05,
                    0.2771
                ],
                [
                    -0.0,
                    2.69614,
                    0.0
                ],
                [
                    0.37135,
                    -8e-05,
                    2.20014
                ]
            ],
            [
                [
                    2.53903,
                    -1e-05,
                    0.2771
                ],
                [
                    -0.0,
                    2.69618,
                    0.0
                ],
                [
                    0.37135,
                    8e-05,
                    2.20014
                ]
            ],
            [
                [
                    6.34445,
                    -0.29702,
                    -0.75134
                ],
                [
                    0.1474,
                    5.55326,
                    0.02445
                ],
                [
                    -0.30607,
                    0.7865,
                    7.30015
                ]
            ],
            [
                [
                    6.34445,
                    0.29702,
                    -0.75134
                ],
                [
                    -0.1474,
                    5.55326,
                    -0.02445
                ],
                [
                    -0.30607,
                    -0.7865,
                    7.30015
                ]
            ],
            [
                [
                    2.74205,
                    0.0,
                    0.58114
                ],
                [
                    -0.0,
                    3.30347,
                    0.0
                ],
                [
                    -0.16963,
                    -1e-05,
                    2.77115
                ]
            ],
            [
                [
                    2.74205,
                    -0.0,
                    0.58114
                ],
                [
                    -0.0,
                    3.30349,
                    0.0
                ],
                [
                    -0.16963,
                    1e-05,
                    2.77115
                ]
            ],
            [
                [
                    -1.81582,
                    1e-05,
                    1.61347
                ],
                [
                    -0.0,
                    -1.88796,
                    0.0
                ],
                [
                    1.64461,
                    0.00013,
                    -4.6412
                ]
            ],
            [
                [
                    -1.81582,
                    -1e-05,
                    1.61347
                ],
                [
                    -0.0,
                    -1.88799,
                    0.0
                ],
                [
                    1.64461,
                    -0.00013,
                    -4.6412
                ]
            ],
            [
                [
                    -1.77092,
                    0.00351,
                    -0.00425
                ],
                [
                    -0.12411,
                    -2.89086,
                    -0.67911
                ],
                [
                    -0.00869,
                    -0.72833,
                    -1.95426
                ]
            ],
            [
                [
                    -1.77101,
                    -0.00331,
                    -0.0042
                ],
                [
                    0.12411,
                    -2.89086,
                    0.67911
                ],
                [
                    -0.00861,
                    0.728,
                    -1.95406
                ]
            ],
            [
                [
                    -1.77101,
                    0.00331,
                    -0.0042
                ],
                [
                    -0.12407,
                    -2.89093,
                    -0.67928
                ],
                [
                    -0.00861,
                    -0.728,
                    -1.95406
                ]
            ],
            [
                [
                    -1.77092,
                    -0.00351,
                    -0.00425
                ],
                [
                    0.12407,
                    -2.89093,
                    0.67928
                ],
                [
                    -0.00869,
                    0.72833,
                    -1.95426
                ]
            ],
            [
                [
                    -3.13392,
                    0.51436,
                    -0.85597
                ],
                [
                    0.64838,
                    -1.94153,
                    0.2402
                ],
                [
                    -0.76136,
                    0.26532,
                    -1.86092
                ]
            ],
            [
                [
                    -3.13386,
                    -0.51424,
                    -0.85595
                ],
                [
                    -0.64838,
                    -1.94153,
                    -0.2402
                ],
                [
                    -0.7616,
                    -0.26532,
                    -1.861
                ]
            ],
            [
                [
                    -3.13386,
                    0.51424,
                    -0.85595
                ],
                [
                    0.64835,
                    -1.94161,
                    0.2401
                ],
                [
                    -0.7616,
                    0.26532,
                    -1.861
                ]
            ],
            [
                [
                    -3.13392,
                    -0.51436,
                    -0.85597
                ],
                [
                    -0.64835,
                    -1.94161,
                    -0.2401
                ],
                [
                    -0.76136,
                    -0.26532,
                    -1.86092
                ]
            ]
        ]
    },
    "band_gap": 4.2581,
    "is_direct": false,
    "formula": "CaTaAlO5"
}