{
    "mp_id": "mp-1190588",
    "nelements": 4,
    "nsites": 21,
    "elements": [
        "B",
        "Ba",
        "Cd",
        "O"
    ],
    "structure": {
        "@module": "pymatgen.core.structure",
        "@class": "Structure",
        "charge": null,
        "lattice": {
            "matrix": [
                [
                    3.57768419,
                    2.06557713,
                    5.74620321
                ],
                [
                    -3.57768428,
                    2.06557698,
                    5.74620321
                ],
                [
                    9e-08,
                    -4.13115411,
                    5.74620321
                ]
            ],
            "a": 7.077095758428686,
            "b": 7.077095760146202,
            "c": 7.077095845838476,
            "alpha": 60.73308484628712,
            "beta": 60.73308480661546,
            "gamma": 60.733082827271076,
            "volume": 254.78604580270837
        },
        "sites": [
            {
                "species": [
                    {
                        "element": "Ba",
                        "occu": 1
                    }
                ],
                "abc": [
                    0.79139979,
                    0.79139979,
                    0.79139979
                ],
                "xyz": [
                    -4.57176967380995e-16,
                    4.440892098500626e-16,
                    13.64263204107398
                ],
                "label": "Ba",
                "properties": {}
            },
            {
                "species": [
                    {
                        "element": "Ba",
                        "occu": 1
                    }
                ],
                "abc": [
                    0.20860021,
                    0.20860021,
                    0.20860021
                ],
                "xyz": [
                    4.9486311756556395e-18,
                    0.0,
                    3.595977588926022
                ],
                "label": "Ba",
                "properties": {}
            },
            {
                "species": [
                    {
                        "element": "Cd",
                        "occu": 1
                    }
                ],
                "abc": [
                    0.0,
                    0.0,
                    0.0
                ],
                "xyz": [
                    0.0,
                    0.0,
                    0.0
                ],
                "label": "Cd",
                "properties": {}
            },
            {
                "species": [
                    {
                        "element": "B",
                        "occu": 1
                    }
                ],
                "abc": [
                    0.63316539,
                    0.36602177,
                    0.7571461
                ],
                "xyz": [
                    0.9557555409345572,
                    -1.0639891315030856,
                    10.092247816441766
                ],
                "label": "B",
                "properties": {}
            },
            {
                "species": [
                    {
                        "element": "B",
                        "occu": 1
                    }
                ],
                "abc": [
                    0.7571461,
                    0.63316539,
                    0.36602177
                ],
                "xyz": [
                    0.44356380198904904,
                    1.3597031828604407,
                    10.092247816441766
                ],
                "label": "B",
                "properties": {}
            },
            {
                "species": [
                    {
                        "element": "B",
                        "occu": 1
                    }
                ],
                "abc": [
                    0.36602177,
                    0.7571461,
                    0.63316539
                ],
                "xyz": [
                    -1.399319342923607,
                    -0.29571405135735507,
                    10.092247816441764
                ],
                "label": "B",
                "properties": {}
            },
            {
                "species": [
                    {
                        "element": "B",
                        "occu": 1
                    }
                ],
                "abc": [
                    0.36683461,
                    0.63397823,
                    0.2428539
                ],
                "xyz": [
                    -0.9557555409345575,
                    1.0639891315030856,
                    7.146361813558235
                ],
                "label": "B",
                "properties": {}
            },
            {
                "species": [
                    {
                        "element": "B",
                        "occu": 1
                    }
                ],
                "abc": [
                    0.2428539,
                    0.36683461,
                    0.63397823
                ],
                "xyz": [
                    -0.44356380198904927,
                    -1.3597031828604402,
                    7.146361813558235
                ],
                "label": "B",
                "properties": {}
            },
            {
                "species": [
                    {
                        "element": "B",
                        "occu": 1
                    }
                ],
                "abc": [
                    0.63397823,
                    0.2428539,
                    0.36683461
                ],
                "xyz": [
                    1.3993193429236062,
                    0.2957140513573546,
                    7.146361813558235
                ],
                "label": "B",
                "properties": {}
            },
            {
                "species": [
                    {
                        "element": "O",
                        "occu": 1
                    }
                ],
                "abc": [
                    0.66416635,
                    0.16017297,
                    0.91732219
                ],
                "xyz": [
                    1.803129215634092,
                    -2.086862912686895,
                    10.007940959495448
                ],
                "label": "O",
                "properties": {}
            },
            {
                "species": [
                    {
                        "element": "O",
                        "occu": 1
                    }
                ],
                "abc": [
                    0.91732219,
                    0.66416635,
                    0.16017297
                ],
                "xyz": [
                    0.9057116010147656,
                    2.604987236629731,
                    10.007940959495448
                ],
                "label": "O",
                "properties": {}
            },
            {
                "species": [
                    {
                        "element": "O",
                        "occu": 1
                    }
                ],
                "abc": [
                    0.16017297,
                    0.91732219,
                    0.66416635
                ],
                "xyz": [
                    -2.708840816648858,
                    -0.5181243239428364,
                    10.007940959495448
                ],
                "label": "O",
                "properties": {}
            },
            {
                "species": [
                    {
                        "element": "O",
                        "occu": 1
                    }
                ],
                "abc": [
                    0.33583365,
                    0.83982703,
                    0.08267781
                ],
                "xyz": [
                    -1.8031292156340921,
                    2.0868629126868945,
                    7.230668670504553
                ],
                "label": "O",
                "properties": {}
            },
            {
                "species": [
                    {
                        "element": "O",
                        "occu": 1
                    }
                ],
                "abc": [
                    0.08267781,
                    0.33583365,
                    0.83982703
                ],
                "xyz": [
                    -0.9057116010147653,
                    -2.604987236629731,
                    7.230668670504553
                ],
                "label": "O",
                "properties": {}
            },
            {
                "species": [
                    {
                        "element": "O",
                        "occu": 1
                    }
                ],
                "abc": [
                    0.83982703,
                    0.08267781,
                    0.33583365
                ],
                "xyz": [
                    2.7088408166488573,
                    0.5181243239428361,
                    7.230668670504553
                ],
                "label": "O",
                "properties": {}
            },
            {
                "species": [
                    {
                        "element": "O",
                        "occu": 1
                    }
                ],
                "abc": [
                    0.42072788,
                    0.54171581,
                    0.79939331
                ],
                "xyz": [
                    -0.43285658115085196,
                    -1.3144153643935659,
                    10.12387342489677
                ],
                "label": "O",
                "properties": {}
            },
            {
                "species": [
                    {
                        "element": "O",
                        "occu": 1
                    }
                ],
                "abc": [
                    0.79939331,
                    0.42072788,
                    0.54171581
                ],
                "xyz": [
                    1.3547453330994652,
                    0.2823428678497235,
                    10.12387342489677
                ],
                "label": "O",
                "properties": {}
            },
            {
                "species": [
                    {
                        "element": "O",
                        "occu": 1
                    }
                ],
                "abc": [
                    0.54171581,
                    0.79939331,
                    0.42072788
                ],
                "xyz": [
                    -0.9218887519486139,
                    1.0320724965438426,
                    10.12387342489677
                ],
                "label": "O",
                "properties": {}
            },
            {
                "species": [
                    {
                        "element": "O",
                        "occu": 1
                    }
                ],
                "abc": [
                    0.57927212,
                    0.45828419,
                    0.20060669
                ],
                "xyz": [
                    0.4328565811508514,
                    1.3144153643935659,
                    7.11473620510323
                ],
                "label": "O",
                "properties": {}
            },
            {
                "species": [
                    {
                        "element": "O",
                        "occu": 1
                    }
                ],
                "abc": [
                    0.20060669,
                    0.57927212,
                    0.45828419
                ],
                "xyz": [
                    -1.3547453330994652,
                    -0.2823428678497235,
                    7.114736205103229
                ],
                "label": "O",
                "properties": {}
            },
            {
                "species": [
                    {
                        "element": "O",
                        "occu": 1
                    }
                ],
                "abc": [
                    0.45828419,
                    0.20060669,
                    0.57927212
                ],
                "xyz": [
                    0.9218887519486136,
                    -1.0320724965438421,
                    7.114736205103229
                ],
                "label": "O",
                "properties": {}
            }
        ]
    },
    "spacegroup": {
        "source": "spglib",
        "symbol": "R-3",
        "number": 148,
        "point_group": "-3",
        "crystal_system": "trigonal",
        "hall": "-R 3"
    },
    "dielectric": {
        "epsilon_ionic": [
            [
                4.97142254,
                9.6e-07,
                2.74e-06
            ],
            [
                9.6e-07,
                4.9714182,
                -7e-08
            ],
            [
                2.74e-06,
                -7e-08,
                3.6852005
            ]
        ],
        "epsilon_ionic_avg": 4.542680413333333,
        "epsilon_ionic_eig": [
            3.6852004999941608,
            4.9714227428729885,
            4.971417997132849
        ],
        "epsilon_electronic": [
            [
                3.23670191,
                3.1e-07,
                0.0
            ],
            [
                -3.1e-07,
                3.23670248,
                -0.0
            ],
            [
                0.0,
                0.0,
                2.75856705
            ]
        ],
        "epsilon_electronic_avg": 3.077323813333333,
        "epsilon_electronic_eig": [
            3.2367021949999994,
            3.2367021949999994,
            2.75856705
        ]
    },
    "phonon": {
        "lowest_freq": -0.060910232430994735,
        "frequency": [
            -0.060910232430994735,
            -0.06091022721479095,
            -0.032275778878835114,
            2.6662960006440977,
            2.826639077983877,
            2.826639272525968,
            2.9035504580867273,
            2.903550697979354,
            3.444600632248506,
            3.6057731317725072,
            3.605773213108782,
            3.856046554915457,
            3.856046713367983,
            4.045894939225932,
            4.201628707134195,
            4.201628896180031,
            4.317768808576428,
            4.889779973598445,
            4.889780320972123,
            5.685221294569278,
            6.438940306120726,
            6.438940325099014,
            6.520229901856506,
            6.758373280568669,
            6.758373316731237,
            7.870555359624687,
            9.548651793671771,
            11.712063389668302,
            11.712063859184445,
            11.75302365819315,
            11.753024136470321,
            13.96191746464664,
            13.961917639694324,
            14.142925414057197,
            14.142925578224169,
            17.28856538544727,
            17.364190173460013,
            18.615460749957105,
            18.775520789566617,
            19.511929111214837,
            19.511929111214837,
            20.042660851736663,
            20.042660851736663,
            20.116855928201154,
            21.401670974970397,
            22.47871266382754,
            22.49636959684718,
            28.080157792999593,
            28.08015848929234,
            28.280377101231185,
            28.28037783580452,
            33.310358362995174,
            33.31643106169587,
            36.43856004843604,
            36.438562429486325,
            36.63285422510689,
            36.632856526812404,
            41.115130832299556,
            41.115131931992615,
            41.20528700616021,
            41.205288251729186,
            44.12112627937095,
            44.942272740474195
        ]
    },
    "born_effective_charge": {
        "avg_abs_trace": 1.9450953968253972,
        "tensors": [
            [
                [
                    2.81446,
                    0.03346,
                    0.0
                ],
                [
                    -0.03347,
                    2.81447,
                    -0.0
                ],
                [
                    -0.0,
                    -0.0,
                    2.47878
                ]
            ],
            [
                [
                    2.81449,
                    0.0335,
                    -0.0
                ],
                [
                    -0.03349,
                    2.81448,
                    -0.0
                ],
                [
                    -0.0,
                    -0.0,
                    2.47879
                ]
            ],
            [
                [
                    2.4362,
                    0.18624,
                    1e-05
                ],
                [
                    -0.18624,
                    2.4362,
                    1e-05
                ],
                [
                    -0.0,
                    -0.0,
                    2.60934
                ]
            ],
            [
                [
                    2.63196,
                    -0.56713,
                    -0.07641
                ],
                [
                    -0.33302,
                    2.85788,
                    0.0784
                ],
                [
                    0.02547,
                    -0.03883,
                    0.77239
                ]
            ],
            [
                [
                    2.41161,
                    0.20579,
                    -0.02969
                ],
                [
                    0.43994,
                    3.07822,
                    -0.10538
                ],
                [
                    0.02089,
                    0.04147,
                    0.77239
                ]
            ],
            [
                [
                    3.19116,
                    0.01016,
                    0.1061
                ],
                [
                    0.24428,
                    2.29865,
                    0.02698
                ],
                [
                    -0.04636,
                    -0.00264,
                    0.77239
                ]
            ],
            [
                [
                    2.63186,
                    -0.56714,
                    -0.07641
                ],
                [
                    -0.33304,
                    2.85794,
                    0.07841
                ],
                [
                    0.02547,
                    -0.03883,
                    0.7724
                ]
            ],
            [
                [
                    2.41165,
                    0.2059,
                    -0.0297
                ],
                [
                    0.43998,
                    3.07817,
                    -0.10537
                ],
                [
                    0.02089,
                    0.04147,
                    0.7724
                ]
            ],
            [
                [
                    3.19123,
                    0.01009,
                    0.10611
                ],
                [
                    0.2442,
                    2.29861,
                    0.02696
                ],
                [
                    -0.04636,
                    -0.00264,
                    0.7724
                ]
            ],
            [
                [
                    -2.11981,
                    0.51667,
                    -0.03384
                ],
                [
                    0.47778,
                    -1.93633,
                    -0.10483
                ],
                [
                    -0.10996,
                    -0.0326,
                    -1.32149
                ]
            ],
            [
                [
                    -1.55158,
                    -0.14971,
                    0.10771
                ],
                [
                    -0.18861,
                    -2.50457,
                    0.0231
                ],
                [
                    0.08321,
                    -0.07893,
                    -1.32149
                ]
            ],
            [
                [
                    -2.41278,
                    -0.30861,
                    -0.07386
                ],
                [
                    -0.34753,
                    -1.64331,
                    0.08171
                ],
                [
                    0.02675,
                    0.11153,
                    -1.32149
                ]
            ],
            [
                [
                    -2.11963,
                    0.51657,
                    -0.03384
                ],
                [
                    0.47787,
                    -1.93648,
                    -0.10483
                ],
                [
                    -0.10995,
                    -0.03256,
                    -1.32148
                ]
            ],
            [
                [
                    -1.55167,
                    -0.14995,
                    0.1077
                ],
                [
                    -0.18865,
                    -2.50443,
                    0.02311
                ],
                [
                    0.08317,
                    -0.07894,
                    -1.32148
                ]
            ],
            [
                [
                    -2.41289,
                    -0.30858,
                    -0.07387
                ],
                [
                    -0.34725,
                    -1.64326,
                    0.08174
                ],
                [
                    0.02678,
                    0.1115,
                    -1.32148
                ]
            ],
            [
                [
                    -2.55273,
                    0.50746,
                    0.02663
                ],
                [
                    0.39656,
                    -1.56937,
                    -0.04048
                ],
                [
                    0.00608,
                    -0.02186,
                    -0.71205
                ]
            ],
            [
                [
                    -1.42374,
                    0.25524,
                    0.02173
                ],
                [
                    0.14434,
                    -2.69834,
                    0.0433
                ],
                [
                    0.01589,
                    0.01619,
                    -0.71205
                ]
            ],
            [
                [
                    -2.20665,
                    -0.59641,
                    -0.04837
                ],
                [
                    -0.70728,
                    -1.91543,
                    -0.00282
                ],
                [
                    -0.02197,
                    0.00567,
                    -0.71205
                ]
            ],
            [
                [
                    -2.55276,
                    0.50742,
                    0.02661
                ],
                [
                    0.3965,
                    -1.56931,
                    -0.04048
                ],
                [
                    0.00608,
                    -0.02185,
                    -0.71206
                ]
            ],
            [
                [
                    -1.42379,
                    0.25535,
                    0.02176
                ],
                [
                    0.14442,
                    -2.6983,
                    0.0433
                ],
                [
                    0.01588,
                    0.01619,
                    -0.71206
                ]
            ],
            [
                [
                    -2.20658,
                    -0.59632,
                    -0.04837
                ],
                [
                    -0.70727,
                    -1.91551,
                    -0.00282
                ],
                [
                    -0.02196,
                    0.00566,
                    -0.71206
                ]
            ]
        ]
    },
    "band_gap": 4.4077,
    "is_direct": false,
    "formula": "Ba2Cd(BO2)6"
}