{
    "mp_id": "mp-1208760",
    "nelements": 4,
    "nsites": 20,
    "elements": [
        "Nb",
        "O",
        "Sc",
        "Sr"
    ],
    "structure": {
        "@module": "pymatgen.core.structure",
        "@class": "Structure",
        "charge": null,
        "lattice": {
            "matrix": [
                [
                    5.69557111,
                    0.0,
                    -0.00012386
                ],
                [
                    0.0,
                    5.71771864,
                    0.0
                ],
                [
                    -5.69926121,
                    0.0,
                    8.05177829
                ]
            ],
            "a": 5.695571111346775,
            "b": 5.71771864,
            "c": 9.864720572379433,
            "alpha": 90.0,
            "beta": 125.29311362338922,
            "gamma": 90.0,
            "volume": 262.20754347702683
        },
        "sites": [
            {
                "species": [
                    {
                        "element": "Sr",
                        "occu": 1
                    }
                ],
                "abc": [
                    0.7559711,
                    0.0269455,
                    0.25032647
                ],
                "xyz": [
                    2.879011216847692,
                    0.15406678761412002,
                    2.0154796019778902
                ],
                "label": "Sr",
                "properties": {}
            },
            {
                "species": [
                    {
                        "element": "Sr",
                        "occu": 1
                    }
                ],
                "abc": [
                    0.2440289,
                    0.9730545,
                    0.74967353
                ],
                "xyz": [
                    -2.8827013168476925,
                    5.56365185238588,
                    6.0361748280221095
                ],
                "label": "Sr",
                "properties": {}
            },
            {
                "species": [
                    {
                        "element": "Sr",
                        "occu": 1
                    }
                ],
                "abc": [
                    0.2440289,
                    0.5269455,
                    0.24967353
                ],
                "xyz": [
                    -0.03307071184769228,
                    3.01292610761412,
                    2.0102856830221096
                ],
                "label": "Sr",
                "properties": {}
            },
            {
                "species": [
                    {
                        "element": "Sr",
                        "occu": 1
                    }
                ],
                "abc": [
                    0.7559711,
                    0.4730545,
                    0.75032647
                ],
                "xyz": [
                    0.02938061184769225,
                    2.70479253238588,
                    6.0413687469778905
                ],
                "label": "Sr",
                "properties": {}
            },
            {
                "species": [
                    {
                        "element": "Sc",
                        "occu": 1
                    }
                ],
                "abc": [
                    0.0,
                    0.5,
                    0.5
                ],
                "xyz": [
                    -2.849630605,
                    2.85885932,
                    4.025889145
                ],
                "label": "Sc",
                "properties": {}
            },
            {
                "species": [
                    {
                        "element": "Sc",
                        "occu": 1
                    }
                ],
                "abc": [
                    0.0,
                    0.0,
                    0.0
                ],
                "xyz": [
                    0.0,
                    0.0,
                    0.0
                ],
                "label": "Sc",
                "properties": {}
            },
            {
                "species": [
                    {
                        "element": "Nb",
                        "occu": 1
                    }
                ],
                "abc": [
                    0.5,
                    0.5,
                    0.0
                ],
                "xyz": [
                    2.847785555,
                    2.85885932,
                    -6.193e-05
                ],
                "label": "Nb",
                "properties": {}
            },
            {
                "species": [
                    {
                        "element": "Nb",
                        "occu": 1
                    }
                ],
                "abc": [
                    0.5,
                    0.0,
                    0.5
                ],
                "xyz": [
                    -0.0018450500000000147,
                    0.0,
                    4.025827215
                ],
                "label": "Nb",
                "properties": {}
            },
            {
                "species": [
                    {
                        "element": "O",
                        "occu": 1
                    }
                ],
                "abc": [
                    0.18929863,
                    0.78489421,
                    0.46543042
                ],
                "xyz": [
                    -1.5744457304694293,
                    4.4878042549450745,
                    3.74751910473327
                ],
                "label": "O",
                "properties": {}
            },
            {
                "species": [
                    {
                        "element": "O",
                        "occu": 1
                    }
                ],
                "abc": [
                    0.81070137,
                    0.21510579,
                    0.53456958
                ],
                "xyz": [
                    1.5707556304694292,
                    1.2299143850549257,
                    4.3041353252667305
                ],
                "label": "O",
                "properties": {}
            },
            {
                "species": [
                    {
                        "element": "O",
                        "occu": 1
                    }
                ],
                "abc": [
                    0.81070137,
                    0.28489421,
                    0.03456958
                ],
                "xyz": [
                    4.420386235469429,
                    1.6289449349450744,
                    0.27824618026673
                ],
                "label": "O",
                "properties": {}
            },
            {
                "species": [
                    {
                        "element": "O",
                        "occu": 1
                    }
                ],
                "abc": [
                    0.18929863,
                    0.71510579,
                    0.96543042
                ],
                "xyz": [
                    -4.4240763354694295,
                    4.088773705054925,
                    7.7734082497332695
                ],
                "label": "O",
                "properties": {}
            },
            {
                "species": [
                    {
                        "element": "O",
                        "occu": 1
                    }
                ],
                "abc": [
                    0.67893929,
                    0.48630463,
                    0.24559071
                ],
                "xyz": [
                    2.467261398528553,
                    2.7805530476693034,
                    1.9773578535832264
                ],
                "label": "O",
                "properties": {}
            },
            {
                "species": [
                    {
                        "element": "O",
                        "occu": 1
                    }
                ],
                "abc": [
                    0.32106071,
                    0.51369537,
                    0.75440929
                ],
                "xyz": [
                    -2.470951498528553,
                    2.9371655923306967,
                    6.074296576416773
                ],
                "label": "O",
                "properties": {}
            },
            {
                "species": [
                    {
                        "element": "O",
                        "occu": 1
                    }
                ],
                "abc": [
                    0.32106071,
                    0.98630463,
                    0.25440929
                ],
                "xyz": [
                    0.3786791064714472,
                    5.639412367669303,
                    2.0484074314167735
                ],
                "label": "O",
                "properties": {}
            },
            {
                "species": [
                    {
                        "element": "O",
                        "occu": 1
                    }
                ],
                "abc": [
                    0.67893929,
                    0.01369537,
                    0.74559071
                ],
                "xyz": [
                    -0.3823692064714477,
                    0.0783062723306968,
                    6.003246998583227
                ],
                "label": "O",
                "properties": {}
            },
            {
                "species": [
                    {
                        "element": "O",
                        "occu": 1
                    }
                ],
                "abc": [
                    0.24999498,
                    0.2768285,
                    0.46437216
                ],
                "xyz": [
                    -1.2227140527588858,
                    1.58282747453324,
                    3.738990711990183
                ],
                "label": "O",
                "properties": {}
            },
            {
                "species": [
                    {
                        "element": "O",
                        "occu": 1
                    }
                ],
                "abc": [
                    0.75000502,
                    0.7231715,
                    0.53562784
                ],
                "xyz": [
                    1.219023952758886,
                    4.13489116546676,
                    4.312663718009816
                ],
                "label": "O",
                "properties": {}
            },
            {
                "species": [
                    {
                        "element": "O",
                        "occu": 1
                    }
                ],
                "abc": [
                    0.75000502,
                    0.7768285,
                    0.03562784
                ],
                "xyz": [
                    4.068654557758886,
                    4.44168679453324,
                    0.28677457300981635
                ],
                "label": "O",
                "properties": {}
            },
            {
                "species": [
                    {
                        "element": "O",
                        "occu": 1
                    }
                ],
                "abc": [
                    0.24999498,
                    0.2231715,
                    0.96437216
                ],
                "xyz": [
                    -4.072344657758886,
                    1.27603184546676,
                    7.764879856990184
                ],
                "label": "O",
                "properties": {}
            }
        ]
    },
    "spacegroup": {
        "source": "spglib",
        "symbol": "P2_1/c",
        "number": 14,
        "point_group": "2/m",
        "crystal_system": "monoclinic",
        "hall": "-P 2ybc"
    },
    "dielectric": {
        "epsilon_ionic": [
            [
                25.54776078,
                2e-08,
                -0.39733561
            ],
            [
                2e-08,
                29.7448075,
                5e-08
            ],
            [
                -0.39733561,
                5e-08,
                28.54886752
            ]
        ],
        "epsilon_ionic_avg": 27.94714526666667,
        "epsilon_ionic_eig": [
            25.49604613087688,
            28.60058216912313,
            29.744807500000007
        ],
        "epsilon_electronic": [
            [
                4.9694611,
                0.0,
                -0.01470328
            ],
            [
                0.0,
                4.94224677,
                0.0
            ],
            [
                -0.01492415,
                0.0,
                4.93805243
            ]
        ],
        "epsilon_electronic_avg": 4.9499201,
        "epsilon_electronic_eig": [
            4.975345190000547,
            4.932168339999453,
            4.94224677
        ]
    },
    "phonon": {
        "lowest_freq": -0.026871565573265584,
        "frequency": [
            -0.026871565573265584,
            -0.018160325259437286,
            -0.016627168150724653,
            2.627743445958735,
            2.821789635301677,
            2.915935625526268,
            3.248333614922141,
            3.2640746499364495,
            3.483409064589716,
            3.6679415725737994,
            3.8733335026313567,
            3.8967666814163775,
            3.9634759884223314,
            4.202349590506714,
            4.270724019100958,
            4.4094612848220835,
            4.451423454910525,
            4.768707019411411,
            4.8539363289066015,
            5.0542930301067654,
            5.068014490239127,
            6.535728300524208,
            6.598986679079531,
            6.779068441619167,
            7.012423451073534,
            7.0701662998572905,
            7.148407197960752,
            7.339692456835112,
            7.670699402238132,
            7.68651840885926,
            7.875490020912975,
            8.167989360702311,
            8.176469002954393,
            8.676863983766902,
            8.68283205509026,
            9.446318823538085,
            9.606903434719321,
            10.513493439255656,
            10.98642167838763,
            11.177518922342166,
            11.230741830504385,
            11.76263794231647,
            12.085517728515049,
            12.147740131640965,
            12.315203977831992,
            12.487347935247882,
            13.074660260600842,
            13.914787367498931,
            15.688664673441075,
            15.96579322667386,
            16.078456811592865,
            16.241963364691678,
            16.428143588451867,
            16.461401711974403,
            16.520127939593202,
            16.590580766896988,
            16.782139479833965,
            21.72855570769139,
            23.217193122881405,
            23.93199572012765
        ]
    },
    "born_effective_charge": {
        "avg_abs_trace": 3.39426,
        "tensors": [
            [
                [
                    2.54742,
                    0.12556,
                    -0.05862
                ],
                [
                    0.13776,
                    2.47368,
                    -0.02625
                ],
                [
                    0.04113,
                    -0.06294,
                    2.4555
                ]
            ],
            [
                [
                    2.54739,
                    0.1256,
                    -0.05845
                ],
                [
                    0.13816,
                    2.47361,
                    -0.02614
                ],
                [
                    0.04113,
                    -0.06298,
                    2.45542
                ]
            ],
            [
                [
                    2.54739,
                    -0.1256,
                    -0.05845
                ],
                [
                    -0.13776,
                    2.47368,
                    0.02625
                ],
                [
                    0.04113,
                    0.06298,
                    2.45542
                ]
            ],
            [
                [
                    2.54742,
                    -0.12556,
                    -0.05862
                ],
                [
                    -0.13816,
                    2.47361,
                    0.02614
                ],
                [
                    0.04113,
                    0.06294,
                    2.4555
                ]
            ],
            [
                [
                    5.13812,
                    -0.33411,
                    0.52765
                ],
                [
                    0.27138,
                    5.11948,
                    0.05024
                ],
                [
                    -0.43953,
                    0.11371,
                    5.14249
                ]
            ],
            [
                [
                    5.13812,
                    0.33411,
                    0.52765
                ],
                [
                    -0.27138,
                    5.11948,
                    -0.05024
                ],
                [
                    -0.43953,
                    -0.11371,
                    5.14249
                ]
            ],
            [
                [
                    6.87664,
                    -0.27111,
                    -0.40567
                ],
                [
                    0.12846,
                    6.81262,
                    -0.07903
                ],
                [
                    0.25146,
                    -0.08985,
                    6.87153
                ]
            ],
            [
                [
                    6.87664,
                    0.27111,
                    -0.40567
                ],
                [
                    -0.12846,
                    6.81262,
                    0.07903
                ],
                [
                    0.25146,
                    0.08985,
                    6.87153
                ]
            ],
            [
                [
                    -3.42804,
                    1.40426,
                    0.10664
                ],
                [
                    1.42083,
                    -3.17526,
                    -0.08217
                ],
                [
                    0.13387,
                    -0.04046,
                    -1.86742
                ]
            ],
            [
                [
                    -3.42816,
                    1.40399,
                    0.10676
                ],
                [
                    1.42084,
                    -3.17531,
                    -0.08192
                ],
                [
                    0.13382,
                    -0.04036,
                    -1.86734
                ]
            ],
            [
                [
                    -3.42816,
                    -1.40399,
                    0.10676
                ],
                [
                    -1.42083,
                    -3.17526,
                    0.08217
                ],
                [
                    0.13382,
                    0.04036,
                    -1.86734
                ]
            ],
            [
                [
                    -3.42804,
                    -1.40426,
                    0.10664
                ],
                [
                    -1.42084,
                    -3.17531,
                    0.08192
                ],
                [
                    0.13387,
                    0.04046,
                    -1.86742
                ]
            ],
            [
                [
                    -1.97409,
                    -0.0052,
                    -0.22245
                ],
                [
                    -0.0742,
                    -1.7946,
                    0.05482
                ],
                [
                    -0.21656,
                    0.06531,
                    -4.72341
                ]
            ],
            [
                [
                    -1.97412,
                    -0.00508,
                    -0.2225
                ],
                [
                    -0.07453,
                    -1.79456,
                    0.05507
                ],
                [
                    -0.21666,
                    0.06545,
                    -4.72337
                ]
            ],
            [
                [
                    -1.97412,
                    0.00508,
                    -0.2225
                ],
                [
                    0.0742,
                    -1.7946,
                    -0.05482
                ],
                [
                    -0.21666,
                    -0.06545,
                    -4.72337
                ]
            ],
            [
                [
                    -1.97409,
                    0.0052,
                    -0.22245
                ],
                [
                    0.07453,
                    -1.79456,
                    -0.05507
                ],
                [
                    -0.21656,
                    -0.06531,
                    -4.72341
                ]
            ],
            [
                [
                    -3.15267,
                    -1.40007,
                    0.11335
                ],
                [
                    -1.44609,
                    -3.46976,
                    0.18434
                ],
                [
                    0.13559,
                    0.17873,
                    -1.87177
                ]
            ],
            [
                [
                    -3.15249,
                    -1.40016,
                    0.11329
                ],
                [
                    -1.44568,
                    -3.4699,
                    0.18477
                ],
                [
                    0.13574,
                    0.17857,
                    -1.87163
                ]
            ],
            [
                [
                    -3.15249,
                    1.40016,
                    0.11329
                ],
                [
                    1.44609,
                    -3.46976,
                    -0.18434
                ],
                [
                    0.13574,
                    -0.17857,
                    -1.87163
                ]
            ],
            [
                [
                    -3.15267,
                    1.40007,
                    0.11335
                ],
                [
                    1.44568,
                    -3.4699,
                    -0.18477
                ],
                [
                    0.13559,
                    -0.17873,
                    -1.87177
                ]
            ]
        ]
    },
    "band_gap": 3.1594,
    "is_direct": false,
    "formula": "Sr2ScNbO6"
}