{
    "mp_id": "mp-1211649",
    "nelements": 3,
    "nsites": 18,
    "elements": [
        "Hf",
        "K",
        "O"
    ],
    "structure": {
        "@module": "pymatgen.core.structure",
        "@class": "Structure",
        "charge": null,
        "lattice": {
            "matrix": [
                [
                    6.56797012,
                    -0.00096445,
                    -8.891e-05
                ],
                [
                    2.53359159,
                    6.08823981,
                    -0.00107279
                ],
                [
                    3.10827252,
                    0.4474653,
                    9.38348432
                ]
            ],
            "a": 6.567970191412382,
            "b": 6.59437271314459,
            "c": 9.895016990231857,
            "alpha": 80.66047208505965,
            "beta": 71.69317486975388,
            "gamma": 67.41401284980725,
            "volume": 375.24859309852445
        },
        "sites": [
            {
                "species": [
                    {
                        "element": "K",
                        "occu": 1
                    }
                ],
                "abc": [
                    0.95469207,
                    0.22983033,
                    0.60977058
                ],
                "xyz": [
                    8.748018318094335,
                    1.6711925873953999,
                    5.721441234875641
                ],
                "label": "K",
                "properties": {}
            },
            {
                "species": [
                    {
                        "element": "K",
                        "occu": 1
                    }
                ],
                "abc": [
                    0.04530793,
                    0.77016967,
                    0.39022942
                ],
                "xyz": [
                    3.4618159119056653,
                    4.863548072604599,
                    3.660881385124359
                ],
                "label": "K",
                "properties": {}
            },
            {
                "species": [
                    {
                        "element": "K",
                        "occu": 1
                    }
                ],
                "abc": [
                    0.39687747,
                    0.27200239,
                    0.82489585
                ],
                "xyz": [
                    5.859823434442138,
                    2.0247452797262095,
                    7.740070186288247
                ],
                "label": "K",
                "properties": {}
            },
            {
                "species": [
                    {
                        "element": "K",
                        "occu": 1
                    }
                ],
                "abc": [
                    0.60312253,
                    0.72799761,
                    0.17510415
                ],
                "xyz": [
                    6.3500107955578615,
                    4.509995380273789,
                    1.642252433711754
                ],
                "label": "K",
                "properties": {}
            },
            {
                "species": [
                    {
                        "element": "K",
                        "occu": 1
                    }
                ],
                "abc": [
                    0.2408327,
                    0.76182606,
                    0.98203849
                ],
                "xyz": [
                    6.564381328227054,
                    5.077375623229331,
                    9.214104080737213
                ],
                "label": "K",
                "properties": {}
            },
            {
                "species": [
                    {
                        "element": "K",
                        "occu": 1
                    }
                ],
                "abc": [
                    0.7591673,
                    0.23817394,
                    0.01796151
                ],
                "xyz": [
                    5.645452901772946,
                    1.4573650367706696,
                    0.1682185392627876
                ],
                "label": "K",
                "properties": {}
            },
            {
                "species": [
                    {
                        "element": "K",
                        "occu": 1
                    }
                ],
                "abc": [
                    0.48278798,
                    0.73100895,
                    0.56043539
                ],
                "xyz": [
                    6.765001076842371,
                    4.700867555905956,
                    5.258009550667313
                ],
                "label": "K",
                "properties": {}
            },
            {
                "species": [
                    {
                        "element": "K",
                        "occu": 1
                    }
                ],
                "abc": [
                    0.51721202,
                    0.26899105,
                    0.43956461
                ],
                "xyz": [
                    5.444833153157629,
                    1.8338731040940446,
                    4.124313069332688
                ],
                "label": "K",
                "properties": {}
            },
            {
                "species": [
                    {
                        "element": "Hf",
                        "occu": 1
                    }
                ],
                "abc": [
                    0.84410084,
                    0.7208691,
                    0.75619858
                ],
                "xyz": [
                    9.72088825051479,
                    4.7263824838230075,
                    7.0949291280687925
                ],
                "label": "Hf",
                "properties": {}
            },
            {
                "species": [
                    {
                        "element": "Hf",
                        "occu": 1
                    }
                ],
                "abc": [
                    0.15589916,
                    0.2791309,
                    0.24380142
                ],
                "xyz": [
                    2.4889459794852087,
                    1.8083581761769931,
                    2.287393491931208
                ],
                "label": "Hf",
                "properties": {}
            },
            {
                "species": [
                    {
                        "element": "O",
                        "occu": 1
                    }
                ],
                "abc": [
                    0.70579184,
                    0.9662362,
                    0.62769189
                ],
                "xyz": [
                    9.03470507904724,
                    6.162867337629451,
                    5.888837687120673
                ],
                "label": "O",
                "properties": {}
            },
            {
                "species": [
                    {
                        "element": "O",
                        "occu": 1
                    }
                ],
                "abc": [
                    0.29420816,
                    0.0337638,
                    0.37230811
                ],
                "xyz": [
                    3.175129150952759,
                    0.37187332237054904,
                    3.493484932879328
                ],
                "label": "O",
                "properties": {}
            },
            {
                "species": [
                    {
                        "element": "O",
                        "occu": 1
                    }
                ],
                "abc": [
                    0.84392215,
                    0.45977441,
                    0.35927413
                ],
                "xyz": [
                    7.824457948705278,
                    2.9591656522263836,
                    3.3706748909289814
                ],
                "label": "O",
                "properties": {}
            },
            {
                "species": [
                    {
                        "element": "O",
                        "occu": 1
                    }
                ],
                "abc": [
                    0.15607785,
                    0.54022559,
                    0.64072587
                ],
                "xyz": [
                    4.385376281294723,
                    3.5755750077736166,
                    6.0116477290710195
                ],
                "label": "O",
                "properties": {}
            },
            {
                "species": [
                    {
                        "element": "O",
                        "occu": 1
                    }
                ],
                "abc": [
                    0.6512962,
                    0.53338399,
                    0.8051433
                ],
                "xyz": [
                    8.131675966226304,
                    3.6070151875920424,
                    7.554419415147283
                ],
                "label": "O",
                "properties": {}
            },
            {
                "species": [
                    {
                        "element": "O",
                        "occu": 1
                    }
                ],
                "abc": [
                    0.3487038,
                    0.46661601,
                    0.1948567
                ],
                "xyz": [
                    4.078158263773696,
                    2.9277254724079587,
                    1.8279032048527182
                ],
                "label": "O",
                "properties": {}
            },
            {
                "species": [
                    {
                        "element": "O",
                        "occu": 1
                    }
                ],
                "abc": [
                    0.84819433,
                    0.8473617,
                    0.92429387
                ],
                "xyz": [
                    10.590740728726974,
                    5.57171262821542,
                    8.672112582101095
                ],
                "label": "O",
                "properties": {}
            },
            {
                "species": [
                    {
                        "element": "O",
                        "occu": 1
                    }
                ],
                "abc": [
                    0.15180567,
                    0.1526383,
                    0.07570613
                ],
                "xyz": [
                    1.619093501273025,
                    0.9630280317845805,
                    0.7102100378989049
                ],
                "label": "O",
                "properties": {}
            }
        ]
    },
    "spacegroup": {
        "source": "spglib",
        "symbol": "P-1",
        "number": 2,
        "point_group": "-1",
        "crystal_system": "triclinic",
        "hall": "-P 1"
    },
    "dielectric": {
        "epsilon_ionic": [
            [
                4.09884911,
                -0.42625266,
                0.30164014
            ],
            [
                -0.42625266,
                4.50969646,
                -0.20832353
            ],
            [
                0.30164014,
                -0.20832353,
                3.81306783
            ]
        ],
        "epsilon_ionic_avg": 4.140537799999998,
        "epsilon_ionic_eig": [
            4.885268067042303,
            3.91895642412744,
            3.6173889088302515
        ],
        "epsilon_electronic": [
            [
                2.72893335,
                0.00494941,
                0.00064451
            ],
            [
                0.00494972,
                2.76160584,
                0.00664292
            ],
            [
                0.00064224,
                0.00664271,
                2.75878757
            ]
        ],
        "epsilon_electronic_avg": 2.7497755866666687,
        "epsilon_electronic_eig": [
            2.7281961180480687,
            2.7674623347417393,
            2.7536683072101984
        ]
    },
    "phonon": {
        "lowest_freq": -0.09001904829090682,
        "frequency": [
            -0.09001904829090682,
            -0.050105247513710253,
            -0.03638564695287669,
            1.6129449535722564,
            2.01376106344637,
            2.1740481202793234,
            2.3273734325429984,
            2.4492476062720416,
            2.6142148212120224,
            2.7160580431862584,
            2.9453831140324382,
            2.9767912954403113,
            3.2744413541132733,
            3.274812026366184,
            3.3134715361497107,
            3.5336985401454832,
            3.6147821380537413,
            3.9424466909266167,
            3.993760693004255,
            4.045056458385463,
            4.0717350964533985,
            4.3377254176124715,
            4.396765827503918,
            4.621894246339468,
            4.621947632447954,
            4.8745410927297,
            4.952323640544407,
            5.274475763250615,
            5.298940148616132,
            5.413651158785195,
            5.508183104637167,
            5.528795396154963,
            5.634668969061556,
            5.790807171008585,
            5.909128960094358,
            6.210725037370375,
            7.333905891328512,
            7.692707605421962,
            7.947739616410038,
            7.990044689338282,
            8.017000449996688,
            8.220768861443819,
            8.637597223649209,
            8.873667833705767,
            9.141360832052504,
            9.514313801698815,
            16.622415262033755,
            16.655383480708277,
            16.87954309321554,
            17.018993949282194,
            17.287934955892325,
            18.294787286887342,
            20.30862429148568,
            20.373415794660424
        ]
    },
    "born_effective_charge": {
        "avg_abs_trace": 1.6055375925925928,
        "tensors": [
            [
                [
                    0.97201,
                    0.14289,
                    -0.04267
                ],
                [
                    0.16339,
                    1.18264,
                    0.09496
                ],
                [
                    -0.06768,
                    0.07228,
                    1.18124
                ]
            ],
            [
                [
                    0.97202,
                    0.14292,
                    -0.0427
                ],
                [
                    0.16342,
                    1.18271,
                    0.09501
                ],
                [
                    -0.06762,
                    0.07238,
                    1.18121
                ]
            ],
            [
                [
                    1.10263,
                    -0.07348,
                    -0.01466
                ],
                [
                    -0.08275,
                    1.1807,
                    -0.01778
                ],
                [
                    -0.06765,
                    -0.04283,
                    1.16359
                ]
            ],
            [
                [
                    1.10256,
                    -0.07353,
                    -0.01465
                ],
                [
                    -0.08278,
                    1.18065,
                    -0.01771
                ],
                [
                    -0.06766,
                    -0.04288,
                    1.16359
                ]
            ],
            [
                [
                    1.17299,
                    -0.03973,
                    -0.00912
                ],
                [
                    -0.02093,
                    1.1545,
                    0.0007
                ],
                [
                    0.05601,
                    0.03964,
                    1.0618
                ]
            ],
            [
                [
                    1.173,
                    -0.03981,
                    -0.00916
                ],
                [
                    -0.02089,
                    1.15447,
                    0.0007
                ],
                [
                    0.05608,
                    0.03959,
                    1.06177
                ]
            ],
            [
                [
                    1.29355,
                    -0.0278,
                    0.08861
                ],
                [
                    -0.05756,
                    1.04071,
                    -0.05033
                ],
                [
                    0.06647,
                    -0.06361,
                    1.12357
                ]
            ],
            [
                [
                    1.29355,
                    -0.02782,
                    0.0886
                ],
                [
                    -0.05759,
                    1.04074,
                    -0.05034
                ],
                [
                    0.06652,
                    -0.06362,
                    1.12357
                ]
            ],
            [
                [
                    2.58139,
                    0.05072,
                    0.07341
                ],
                [
                    0.05558,
                    2.69662,
                    0.12178
                ],
                [
                    0.06722,
                    0.14642,
                    2.76687
                ]
            ],
            [
                [
                    2.58131,
                    0.05079,
                    0.0734
                ],
                [
                    0.05555,
                    2.69669,
                    0.12169
                ],
                [
                    0.06726,
                    0.14645,
                    2.76685
                ]
            ],
            [
                [
                    -1.46057,
                    0.30413,
                    -0.31198
                ],
                [
                    0.32591,
                    -2.12535,
                    0.58811
                ],
                [
                    -0.26043,
                    0.54064,
                    -1.82653
                ]
            ],
            [
                [
                    -1.46069,
                    0.30424,
                    -0.31204
                ],
                [
                    0.32597,
                    -2.12535,
                    0.58808
                ],
                [
                    -0.26054,
                    0.54052,
                    -1.82667
                ]
            ],
            [
                [
                    -1.9126,
                    0.52795,
                    0.44936
                ],
                [
                    0.4955,
                    -1.75522,
                    -0.44434
                ],
                [
                    0.41484,
                    -0.39114,
                    -1.76528
                ]
            ],
            [
                [
                    -1.91267,
                    0.52808,
                    0.4493
                ],
                [
                    0.49557,
                    -1.75533,
                    -0.44448
                ],
                [
                    0.415,
                    -0.39122,
                    -1.76535
                ]
            ],
            [
                [
                    -2.13531,
                    -0.62474,
                    0.27463
                ],
                [
                    -0.63296,
                    -1.74784,
                    0.18322
                ],
                [
                    0.31959,
                    0.19194,
                    -1.4662
                ]
            ],
            [
                [
                    -2.13501,
                    -0.62472,
                    0.27475
                ],
                [
                    -0.63318,
                    -1.74809,
                    0.18335
                ],
                [
                    0.31981,
                    0.19206,
                    -1.46635
                ]
            ],
            [
                [
                    -1.61413,
                    -0.26005,
                    -0.50759
                ],
                [
                    -0.24615,
                    -1.62659,
                    -0.47631
                ],
                [
                    -0.52862,
                    -0.49331,
                    -2.23888
                ]
            ],
            [
                [
                    -1.61404,
                    -0.26006,
                    -0.50751
                ],
                [
                    -0.24611,
                    -1.62666,
                    -0.47631
                ],
                [
                    -0.52858,
                    -0.49331,
                    -2.23882
                ]
            ]
        ]
    },
    "band_gap": 2.7809999999999997,
    "is_direct": false,
    "formula": "K4HfO4"
}