{
    "mp_id": "mp-19342",
    "nelements": 2,
    "nsites": 32,
    "elements": [
        "O",
        "W"
    ],
    "structure": {
        "@module": "pymatgen.core.structure",
        "@class": "Structure",
        "charge": null,
        "lattice": {
            "matrix": [
                [
                    7.54021797,
                    0.0,
                    0.01328577
                ],
                [
                    0.0,
                    7.47736284,
                    0.0
                ],
                [
                    -7.43883723,
                    0.0,
                    7.56006715
                ]
            ],
            "a": 7.540229674671416,
            "b": 7.47736284,
            "c": 10.606173421500479,
            "alpha": 90.0,
            "beta": 134.43595773004037,
            "gamma": 90.0,
            "volume": 426.98272798546174
        },
        "sites": [
            {
                "species": [
                    {
                        "element": "W",
                        "occu": 1
                    }
                ],
                "abc": [
                    0.99620691,
                    0.99204811,
                    0.72934945
                ],
                "xyz": [
                    2.0861054022801495,
                    7.417903673206232,
                    5.527166193694238
                ],
                "label": "W",
                "properties": {}
            },
            {
                "species": [
                    {
                        "element": "W",
                        "occu": 1
                    }
                ],
                "abc": [
                    0.00379309,
                    0.49204811,
                    0.77065055
                ],
                "xyz": [
                    -5.704143277280149,
                    3.679222253206232,
                    5.826220301305762
                ],
                "label": "W",
                "properties": {}
            },
            {
                "species": [
                    {
                        "element": "W",
                        "occu": 1
                    }
                ],
                "abc": [
                    0.00379309,
                    0.00795189,
                    0.27065055
                ],
                "xyz": [
                    -1.9847246622801493,
                    0.059459166793767594,
                    2.046186726305762
                ],
                "label": "W",
                "properties": {}
            },
            {
                "species": [
                    {
                        "element": "W",
                        "occu": 1
                    }
                ],
                "abc": [
                    0.99620691,
                    0.50795189,
                    0.22934945
                ],
                "xyz": [
                    5.805524017280149,
                    3.798140586793767,
                    1.7471326186942384
                ],
                "label": "W",
                "properties": {}
            },
            {
                "species": [
                    {
                        "element": "W",
                        "occu": 1
                    }
                ],
                "abc": [
                    0.46478653,
                    0.98882331,
                    0.23162269
                ],
                "xyz": [
                    1.781588256035195,
                    7.3937906735198,
                    1.7572581368003115
                ],
                "label": "W",
                "properties": {}
            },
            {
                "species": [
                    {
                        "element": "W",
                        "occu": 1
                    }
                ],
                "abc": [
                    0.53521347,
                    0.48882331,
                    0.26837731
                ],
                "xyz": [
                    2.0392110989648042,
                    3.6551092535198,
                    2.0360612081996883
                ],
                "label": "W",
                "properties": {}
            },
            {
                "species": [
                    {
                        "element": "W",
                        "occu": 1
                    }
                ],
                "abc": [
                    0.53521347,
                    0.01117669,
                    0.76837731
                ],
                "xyz": [
                    -1.6802075160351952,
                    0.08357216648019959,
                    5.816094783199689
                ],
                "label": "W",
                "properties": {}
            },
            {
                "species": [
                    {
                        "element": "W",
                        "occu": 1
                    }
                ],
                "abc": [
                    0.46478653,
                    0.51117669,
                    0.73162269
                ],
                "xyz": [
                    -1.937830358964805,
                    3.8222535864801994,
                    5.537291711800312
                ],
                "label": "W",
                "properties": {}
            },
            {
                "species": [
                    {
                        "element": "O",
                        "occu": 1
                    }
                ],
                "abc": [
                    0.77699485,
                    0.96637468,
                    0.77366275
                ],
                "xyz": [
                    0.10355926240327218,
                    7.2259341217488915,
                    5.859265316321946
                ],
                "label": "O",
                "properties": {}
            },
            {
                "species": [
                    {
                        "element": "O",
                        "occu": 1
                    }
                ],
                "abc": [
                    0.22300515,
                    0.46637468,
                    0.72633725
                ],
                "xyz": [
                    -3.721597137403273,
                    3.487252701748891,
                    5.4941211786780535
                ],
                "label": "O",
                "properties": {}
            },
            {
                "species": [
                    {
                        "element": "O",
                        "occu": 1
                    }
                ],
                "abc": [
                    0.22300515,
                    0.03362532,
                    0.22633725
                ],
                "xyz": [
                    -0.0021785224032717654,
                    0.2514287182511088,
                    1.714087603678053
                ],
                "label": "O",
                "properties": {}
            },
            {
                "species": [
                    {
                        "element": "O",
                        "occu": 1
                    }
                ],
                "abc": [
                    0.77699485,
                    0.53362532,
                    0.27366275
                ],
                "xyz": [
                    3.8229778774032717,
                    3.9901101382511084,
                    2.0792317413219474
                ],
                "label": "O",
                "properties": {}
            },
            {
                "species": [
                    {
                        "element": "O",
                        "occu": 1
                    }
                ],
                "abc": [
                    0.76965046,
                    0.53467578,
                    0.77358709
                ],
                "xyz": [
                    0.04874378337140506,
                    3.9979648088200155,
                    5.858595745765048
                ],
                "label": "O",
                "properties": {}
            },
            {
                "species": [
                    {
                        "element": "O",
                        "occu": 1
                    }
                ],
                "abc": [
                    0.23034954,
                    0.03467578,
                    0.72641291
                ],
                "xyz": [
                    -3.6667816583714057,
                    0.2592833888200152,
                    5.494790749234952
                ],
                "label": "O",
                "properties": {}
            },
            {
                "species": [
                    {
                        "element": "O",
                        "occu": 1
                    }
                ],
                "abc": [
                    0.23034954,
                    0.46532422,
                    0.22641291
                ],
                "xyz": [
                    0.05263695662859447,
                    3.4793980311799846,
                    1.7147571742349523
                ],
                "label": "O",
                "properties": {}
            },
            {
                "species": [
                    {
                        "element": "O",
                        "occu": 1
                    }
                ],
                "abc": [
                    0.76965046,
                    0.96532422,
                    0.27358709
                ],
                "xyz": [
                    3.7681623983714054,
                    7.218079451179984,
                    2.0785621707650477
                ],
                "label": "O",
                "properties": {}
            },
            {
                "species": [
                    {
                        "element": "O",
                        "occu": 1
                    }
                ],
                "abc": [
                    0.99996569,
                    0.74750843,
                    0.71757936
                ],
                "xyz": [
                    2.2020032064738766,
                    5.589391757068741,
                    5.438233461219255
                ],
                "label": "O",
                "properties": {}
            },
            {
                "species": [
                    {
                        "element": "O",
                        "occu": 1
                    }
                ],
                "abc": [
                    3.431e-05,
                    0.24750843,
                    0.78242064
                ],
                "xyz": [
                    -5.820041081473876,
                    1.8507103370687412,
                    5.915153033780745
                ],
                "label": "O",
                "properties": {}
            },
            {
                "species": [
                    {
                        "element": "O",
                        "occu": 1
                    }
                ],
                "abc": [
                    3.431e-05,
                    0.25249157,
                    0.28242064
                ],
                "xyz": [
                    -2.1006224664738764,
                    1.8879710829312586,
                    2.1351194587807445
                ],
                "label": "O",
                "properties": {}
            },
            {
                "species": [
                    {
                        "element": "O",
                        "occu": 1
                    }
                ],
                "abc": [
                    0.99996569,
                    0.75249157,
                    0.21757936
                ],
                "xyz": [
                    5.921421821473876,
                    5.626652502931258,
                    1.6581998862192553
                ],
                "label": "O",
                "properties": {}
            },
            {
                "species": [
                    {
                        "element": "O",
                        "occu": 1
                    }
                ],
                "abc": [
                    0.48743527,
                    0.74742186,
                    0.27472734
                ],
                "xyz": [
                    1.6317162171749335,
                    5.588744441767682,
                    2.083433091227989
                ],
                "label": "O",
                "properties": {}
            },
            {
                "species": [
                    {
                        "element": "O",
                        "occu": 1
                    }
                ],
                "abc": [
                    0.51256473,
                    0.24742186,
                    0.22527266
                ],
                "xyz": [
                    2.189083137825066,
                    1.8500630217676823,
                    1.7098862537720112
                ],
                "label": "O",
                "properties": {}
            },
            {
                "species": [
                    {
                        "element": "O",
                        "occu": 1
                    }
                ],
                "abc": [
                    0.51256473,
                    0.25257814,
                    0.72527266
                ],
                "xyz": [
                    -1.5303354771749338,
                    1.8886183982323175,
                    5.4899198287720115
                ],
                "label": "O",
                "properties": {}
            },
            {
                "species": [
                    {
                        "element": "O",
                        "occu": 1
                    }
                ],
                "abc": [
                    0.48743527,
                    0.75257814,
                    0.77472734
                ],
                "xyz": [
                    -2.087702397825066,
                    5.627299818232317,
                    5.863466666227989
                ],
                "label": "O",
                "properties": {}
            },
            {
                "species": [
                    {
                        "element": "O",
                        "occu": 1
                    }
                ],
                "abc": [
                    0.26763906,
                    0.97017831,
                    0.99578878
                ],
                "xyz": [
                    -5.389453800194372,
                    7.254375243368,
                    7.531785835010754
                ],
                "label": "O",
                "properties": {}
            },
            {
                "species": [
                    {
                        "element": "O",
                        "occu": 1
                    }
                ],
                "abc": [
                    0.73236094,
                    0.47017831,
                    0.50421122
                ],
                "xyz": [
                    1.7714159251943706,
                    3.515693823368,
                    3.8216006599892465
                ],
                "label": "O",
                "properties": {}
            },
            {
                "species": [
                    {
                        "element": "O",
                        "occu": 1
                    }
                ],
                "abc": [
                    0.73236094,
                    0.02982169,
                    0.00421122
                ],
                "xyz": [
                    5.490834540194371,
                    0.2229875966319996,
                    0.0415670849892468
                ],
                "label": "O",
                "properties": {}
            },
            {
                "species": [
                    {
                        "element": "O",
                        "occu": 1
                    }
                ],
                "abc": [
                    0.26763906,
                    0.52982169,
                    0.49578878
                ],
                "xyz": [
                    -1.6700351851943713,
                    3.9616690166319994,
                    3.751752260010753
                ],
                "label": "O",
                "properties": {}
            },
            {
                "species": [
                    {
                        "element": "O",
                        "occu": 1
                    }
                ],
                "abc": [
                    0.27522854,
                    0.52845695,
                    0.00363506
                ],
                "xyz": [
                    2.04824256350358,
                    3.951464360469738,
                    0.031137920774154802
                ],
                "label": "O",
                "properties": {}
            },
            {
                "species": [
                    {
                        "element": "O",
                        "occu": 1
                    }
                ],
                "abc": [
                    0.72477146,
                    0.02845695,
                    0.49636494
                ],
                "xyz": [
                    1.7725567914964202,
                    0.212782940469738,
                    3.762181424225845
                ],
                "label": "O",
                "properties": {}
            },
            {
                "species": [
                    {
                        "element": "O",
                        "occu": 1
                    }
                ],
                "abc": [
                    0.72477146,
                    0.47154305,
                    0.99636494
                ],
                "xyz": [
                    -1.9468618235035802,
                    3.525898479530262,
                    7.542214999225846
                ],
                "label": "O",
                "properties": {}
            },
            {
                "species": [
                    {
                        "element": "O",
                        "occu": 1
                    }
                ],
                "abc": [
                    0.27522854,
                    0.97154305,
                    0.50363506
                ],
                "xyz": [
                    -1.67117605149642,
                    7.264579899530261,
                    3.8111714957741554
                ],
                "label": "O",
                "properties": {}
            }
        ]
    },
    "spacegroup": {
        "source": "spglib",
        "symbol": "P2_1/c",
        "number": 14,
        "point_group": "2/m",
        "crystal_system": "monoclinic",
        "hall": "-P 2ybc"
    },
    "dielectric": {
        "epsilon_ionic": [
            [
                34.96721161,
                -7e-08,
                0.77399824
            ],
            [
                -7e-08,
                69.64135242,
                1.4e-07
            ],
            [
                0.77399824,
                1.4e-07,
                30.15945351
            ]
        ],
        "epsilon_ionic_avg": 44.92267251333334,
        "epsilon_ionic_eig": [
            35.088744954551046,
            30.037920165448966,
            69.64135242
        ],
        "epsilon_electronic": [
            [
                6.4669659,
                0.0,
                0.06317101
            ],
            [
                0.0,
                6.77558162,
                0.0
            ],
            [
                0.06316935,
                0.0,
                6.4261272
            ]
        ],
        "epsilon_electronic_avg": 6.5562249066666665,
        "epsilon_electronic_eig": [
            6.512934963860899,
            6.380158136139101,
            6.77558162
        ]
    },
    "phonon": {
        "lowest_freq": -0.03072741869136175,
        "frequency": [
            -0.03072741869136175,
            -0.015295589217917955,
            -0.01398767812713662,
            1.2718502900933208,
            1.377919364211971,
            1.6560028067678192,
            1.8056518492635882,
            1.8809389779893675,
            1.9554698947096192,
            2.0289894190552564,
            2.0373586017631964,
            2.040818571173382,
            2.552917618264734,
            2.8968478022756794,
            3.000409584693786,
            3.3544702069863956,
            3.7165343320051196,
            4.903222042945971,
            4.923669762460006,
            5.652081115464018,
            5.678948150308218,
            5.814660757143749,
            5.891826085588821,
            6.022879281745665,
            6.170338740566576,
            6.180274369291635,
            6.2743879451333,
            6.410200619076604,
            6.542368000331939,
            6.673903369736085,
            7.103917854176673,
            7.249707445032888,
            7.4736140447375385,
            7.734131301713925,
            7.744375008082535,
            7.758353260089522,
            7.868678961645076,
            8.036540763906494,
            8.11121491220309,
            8.846187310694503,
            8.930988669959653,
            9.13089357108797,
            9.19511723606793,
            9.25038411062033,
            9.301263251622515,
            9.433179689168364,
            9.45429615926052,
            9.483628924062904,
            9.736505956312374,
            9.762366088999999,
            9.815413386756763,
            9.8292545307738,
            9.985679008694284,
            10.233707653427768,
            10.369646946792606,
            10.370956358414064,
            10.385914394249887,
            10.454742969926894,
            10.720794972404812,
            10.774113325607228,
            11.372343325003042,
            11.374090807388335,
            11.413201651910127,
            11.722943973726245,
            12.457816010802196,
            12.582023374872403,
            12.79767442085319,
            12.80967817985496,
            12.966054620667059,
            13.036709578956902,
            13.085042470002996,
            13.14772961269242,
            17.453868613437358,
            17.894675506476823,
            18.138272513613458,
            18.267072745997574,
            18.46111903563835,
            18.527204417138822,
            19.178827086209523,
            19.39535505109715,
            19.458568218829637,
            19.538847451022626,
            19.592791165258905,
            19.645110974524425,
            20.24817326808397,
            21.07978894116003,
            21.249024408004185,
            21.299782941929667,
            21.867541854093666,
            28.318651380119352,
            28.48638033664896,
            28.525211479578523,
            29.391896647595125,
            29.414109145396907,
            29.454681977941885,
            30.231127208590024
        ]
    },
    "born_effective_charge": {
        "avg_abs_trace": 4.922135416666666,
        "tensors": [
            [
                [
                    9.69656,
                    1.01857,
                    -0.45358
                ],
                [
                    -0.88095,
                    10.13729,
                    0.56726
                ],
                [
                    0.8497,
                    -0.89914,
                    9.58103
                ]
            ],
            [
                [
                    9.69621,
                    -1.01839,
                    -0.45314
                ],
                [
                    0.88095,
                    10.13729,
                    -0.56726
                ],
                [
                    0.84998,
                    0.89891,
                    9.58046
                ]
            ],
            [
                [
                    9.69621,
                    1.01839,
                    -0.45314
                ],
                [
                    -0.88065,
                    10.13501,
                    0.56693
                ],
                [
                    0.84998,
                    -0.89891,
                    9.58046
                ]
            ],
            [
                [
                    9.69656,
                    -1.01857,
                    -0.45358
                ],
                [
                    0.88065,
                    10.13501,
                    -0.56693
                ],
                [
                    0.8497,
                    0.89914,
                    9.58103
                ]
            ],
            [
                [
                    9.69795,
                    -1.04423,
                    0.67822
                ],
                [
                    1.09302,
                    10.31128,
                    -1.15324
                ],
                [
                    -0.61857,
                    0.73484,
                    9.64425
                ]
            ],
            [
                [
                    9.69831,
                    1.0443,
                    0.67878
                ],
                [
                    -1.09302,
                    10.31128,
                    1.15324
                ],
                [
                    -0.61881,
                    -0.73498,
                    9.64374
                ]
            ],
            [
                [
                    9.69831,
                    -1.0443,
                    0.67878
                ],
                [
                    1.0926,
                    10.30915,
                    -1.15314
                ],
                [
                    -0.61881,
                    0.73498,
                    9.64374
                ]
            ],
            [
                [
                    9.69795,
                    1.04423,
                    0.67822
                ],
                [
                    -1.0926,
                    10.30915,
                    1.15314
                ],
                [
                    -0.61857,
                    -0.73484,
                    9.64425
                ]
            ],
            [
                [
                    -7.16249,
                    0.41191,
                    0.42509
                ],
                [
                    0.17021,
                    -1.34232,
                    0.0131
                ],
                [
                    0.1757,
                    -0.04862,
                    -1.21658
                ]
            ],
            [
                [
                    -7.1623,
                    -0.4119,
                    0.42487
                ],
                [
                    -0.17021,
                    -1.34232,
                    -0.0131
                ],
                [
                    0.17539,
                    0.04883,
                    -1.21652
                ]
            ],
            [
                [
                    -7.1623,
                    0.4119,
                    0.42487
                ],
                [
                    0.17011,
                    -1.34287,
                    0.01308
                ],
                [
                    0.17539,
                    -0.04883,
                    -1.21652
                ]
            ],
            [
                [
                    -7.16249,
                    -0.41191,
                    0.42509
                ],
                [
                    -0.17011,
                    -1.34287,
                    -0.01308
                ],
                [
                    0.1757,
                    0.04862,
                    -1.21658
                ]
            ],
            [
                [
                    -7.16887,
                    0.38504,
                    -0.45842
                ],
                [
                    0.20604,
                    -1.34514,
                    0.03692
                ],
                [
                    -0.23925,
                    0.0352,
                    -1.22668
                ]
            ],
            [
                [
                    -7.16934,
                    -0.385,
                    -0.45818
                ],
                [
                    -0.20604,
                    -1.34514,
                    -0.03692
                ],
                [
                    -0.2389,
                    -0.03533,
                    -1.22674
                ]
            ],
            [
                [
                    -7.16934,
                    0.385,
                    -0.45818
                ],
                [
                    0.2061,
                    -1.3446,
                    0.0369
                ],
                [
                    -0.2389,
                    0.03533,
                    -1.22674
                ]
            ],
            [
                [
                    -7.16887,
                    -0.38504,
                    -0.45842
                ],
                [
                    -0.2061,
                    -1.3446,
                    -0.0369
                ],
                [
                    -0.23925,
                    -0.0352,
                    -1.22668
                ]
            ],
            [
                [
                    -1.26849,
                    -0.19777,
                    0.16331
                ],
                [
                    -0.34902,
                    -7.51255,
                    0.48953
                ],
                [
                    0.00145,
                    0.26432,
                    -1.27411
                ]
            ],
            [
                [
                    -1.26861,
                    0.19763,
                    0.16327
                ],
                [
                    0.34902,
                    -7.51255,
                    -0.48953
                ],
                [
                    0.00151,
                    -0.26419,
                    -1.27418
                ]
            ],
            [
                [
                    -1.26861,
                    -0.19763,
                    0.16327
                ],
                [
                    -0.34896,
                    -7.51115,
                    0.48964
                ],
                [
                    0.00151,
                    0.26419,
                    -1.27418
                ]
            ],
            [
                [
                    -1.26849,
                    0.19777,
                    0.16331
                ],
                [
                    0.34896,
                    -7.51115,
                    -0.48964
                ],
                [
                    0.00145,
                    -0.26432,
                    -1.27411
                ]
            ],
            [
                [
                    -1.27299,
                    0.1643,
                    -0.14552
                ],
                [
                    0.379,
                    -7.6815,
                    0.62167
                ],
                [
                    0.01431,
                    0.28628,
                    -1.29761
                ]
            ],
            [
                [
                    -1.27289,
                    -0.16441,
                    -0.14558
                ],
                [
                    -0.379,
                    -7.6815,
                    -0.62167
                ],
                [
                    0.01428,
                    -0.28624,
                    -1.29752
                ]
            ],
            [
                [
                    -1.27289,
                    0.16441,
                    -0.14558
                ],
                [
                    0.37876,
                    -7.68011,
                    0.62153
                ],
                [
                    0.01428,
                    0.28624,
                    -1.29752
                ]
            ],
            [
                [
                    -1.27299,
                    -0.1643,
                    -0.14552
                ],
                [
                    -0.37876,
                    -7.68011,
                    -0.62153
                ],
                [
                    0.01431,
                    -0.28628,
                    -1.29761
                ]
            ],
            [
                [
                    -1.24028,
                    0.03283,
                    0.15786
                ],
                [
                    -0.03102,
                    -1.25991,
                    0.2508
                ],
                [
                    0.44838,
                    -0.00421,
                    -7.18275
                ]
            ],
            [
                [
                    -1.24043,
                    -0.03302,
                    0.1573
                ],
                [
                    0.03102,
                    -1.25991,
                    -0.2508
                ],
                [
                    0.44822,
                    0.0044,
                    -7.18249
                ]
            ],
            [
                [
                    -1.24043,
                    0.03302,
                    0.1573
                ],
                [
                    -0.03099,
                    -1.25976,
                    0.25121
                ],
                [
                    0.44822,
                    -0.0044,
                    -7.18249
                ]
            ],
            [
                [
                    -1.24028,
                    -0.03283,
                    0.15786
                ],
                [
                    0.03099,
                    -1.25976,
                    -0.25121
                ],
                [
                    0.44838,
                    0.00421,
                    -7.18275
                ]
            ],
            [
                [
                    -1.2813,
                    -0.0201,
                    -0.36731
                ],
                [
                    -0.06726,
                    -1.30672,
                    -0.28265
                ],
                [
                    -0.63161,
                    -0.15561,
                    -7.02689
                ]
            ],
            [
                [
                    -1.28104,
                    0.02008,
                    -0.36696
                ],
                [
                    0.06726,
                    -1.30672,
                    0.28265
                ],
                [
                    -0.63175,
                    0.15543,
                    -7.02742
                ]
            ],
            [
                [
                    -1.28104,
                    -0.02008,
                    -0.36696
                ],
                [
                    -0.06722,
                    -1.30611,
                    -0.28288
                ],
                [
                    -0.63175,
                    -0.15543,
                    -7.02742
                ]
            ],
            [
                [
                    -1.2813,
                    0.0201,
                    -0.36731
                ],
                [
                    0.06722,
                    -1.30611,
                    0.28288
                ],
                [
                    -0.63161,
                    0.15561,
                    -7.02689
                ]
            ]
        ]
    },
    "band_gap": 1.5453999999999999,
    "is_direct": false,
    "formula": "WO3"
}