{
    "mp_id": "mp-1106089",
    "nelements": 4,
    "nsites": 18,
    "elements": [
        "Ba",
        "Ga",
        "In",
        "O"
    ],
    "structure": {
        "@module": "pymatgen.core.structure",
        "@class": "Structure",
        "charge": null,
        "lattice": {
            "matrix": [
                [
                    -7.72767439,
                    3.09220277,
                    2.980299
                ],
                [
                    7.72767439,
                    -3.09220277,
                    2.980299
                ],
                [
                    7.72767439,
                    3.09220277,
                    -2.980299
                ]
            ],
            "a": 8.840862603731525,
            "b": 8.840862603731525,
            "c": 8.840862603731525,
            "alpha": 58.12601990796263,
            "beta": 139.05441371118104,
            "gamma": 140.59881413210505,
            "volume": 284.86337002188014
        },
        "sites": [
            {
                "species": [
                    {
                        "element": "Ba",
                        "occu": 1
                    }
                ],
                "abc": [
                    0.48085472,
                    0.8676405,
                    0.37508728
                ],
                "xyz": [
                    5.887506934192933,
                    -0.036174134104844935,
                    2.901046710174061
                ],
                "label": "Ba",
                "properties": {}
            },
            {
                "species": [
                    {
                        "element": "Ba",
                        "occu": 1
                    }
                ],
                "abc": [
                    0.49255322,
                    0.10576644,
                    0.62491272
                ],
                "xyz": [
                    1.8401597281326763,
                    3.128379996307615,
                    -0.07925527012493983
                ],
                "label": "Ba",
                "properties": {}
            },
            {
                "species": [
                    {
                        "element": "Ba",
                        "occu": 1
                    }
                ],
                "abc": [
                    0.48085472,
                    0.60576644,
                    0.11321322
                ],
                "xyz": [
                    1.8401520004582863,
                    -0.036174134104844935,
                    2.90104671017406
                ],
                "label": "Ba",
                "properties": {}
            },
            {
                "species": [
                    {
                        "element": "Ba",
                        "occu": 1
                    }
                ],
                "abc": [
                    0.49255322,
                    0.3676405,
                    0.88678678
                ],
                "xyz": [
                    5.887514661867323,
                    3.128379996307615,
                    -0.07925527012494005
                ],
                "label": "Ba",
                "properties": {}
            },
            {
                "species": [
                    {
                        "element": "In",
                        "occu": 1
                    }
                ],
                "abc": [
                    0.98591156,
                    0.48591156,
                    0.5
                ],
                "xyz": [
                    -4.440892098500626e-16,
                    3.09220277,
                    2.89632347271288
                ],
                "label": "In",
                "properties": {}
            },
            {
                "species": [
                    {
                        "element": "In",
                        "occu": 1
                    }
                ],
                "abc": [
                    0.98591156,
                    0.98591156,
                    0.0
                ],
                "xyz": [
                    0.0,
                    0.0,
                    5.87662247271288
                ],
                "label": "In",
                "properties": {}
            },
            {
                "species": [
                    {
                        "element": "Ga",
                        "occu": 1
                    }
                ],
                "abc": [
                    0.05229523,
                    0.23690478,
                    0.31539045
                ],
                "xyz": [
                    3.863837195,
                    0.40440106124309294,
                    -0.07805534214155996
                ],
                "label": "Ga",
                "properties": {}
            },
            {
                "species": [
                    {
                        "element": "Ga",
                        "occu": 1
                    }
                ],
                "abc": [
                    0.92151433,
                    0.73690478,
                    0.68460955
                ],
                "xyz": [
                    3.8638371949999994,
                    2.687801708756907,
                    2.90224365785844
                ],
                "label": "Ga",
                "properties": {}
            },
            {
                "species": [
                    {
                        "element": "O",
                        "occu": 1
                    }
                ],
                "abc": [
                    0.98748067,
                    0.7491361,
                    0.2632496
                ],
                "xyz": [
                    0.1924579625131817,
                    1.5510308818898508,
                    4.391074703383829
                ],
                "label": "O",
                "properties": {}
            },
            {
                "species": [
                    {
                        "element": "O",
                        "occu": 1
                    }
                ],
                "abc": [
                    0.4858855,
                    0.72423106,
                    0.7367504
                ],
                "xyz": [
                    7.535224077884465,
                    1.541168826829407,
                    1.41077269328184
                ],
                "label": "O",
                "properties": {}
            },
            {
                "species": [
                    {
                        "element": "O",
                        "occu": 1
                    }
                ],
                "abc": [
                    0.98748067,
                    0.22423106,
                    0.73834557
                ],
                "xyz": [
                    -0.1924503121155352,
                    4.643236775014648,
                    1.4107726932818396
                ],
                "label": "O",
                "properties": {}
            },
            {
                "species": [
                    {
                        "element": "O",
                        "occu": 1
                    }
                ],
                "abc": [
                    0.4858855,
                    0.2491361,
                    0.26165443
                ],
                "xyz": [
                    0.19245796251318126,
                    1.5411657037046091,
                    1.4107757033838304
                ],
                "label": "O",
                "properties": {}
            },
            {
                "species": [
                    {
                        "element": "O",
                        "occu": 1
                    }
                ],
                "abc": [
                    0.90911772,
                    0.33656376,
                    0.28064749
                ],
                "xyz": [
                    -2.255758152494304,
                    2.638271887058017,
                    2.8760898353630098
                ],
                "label": "O",
                "properties": {}
            },
            {
                "species": [
                    {
                        "element": "O",
                        "occu": 1
                    }
                ],
                "abc": [
                    0.05591727,
                    0.62847023,
                    0.71935251
                ],
                "xyz": [
                    9.983424814819912,
                    0.4539339751447533,
                    -0.10420618433798978
                ],
                "label": "O",
                "properties": {}
            },
            {
                "species": [
                    {
                        "element": "O",
                        "occu": 1
                    }
                ],
                "abc": [
                    0.90911772,
                    0.12847023,
                    0.07255396
                ],
                "xyz": [
                    -5.471916237505697,
                    2.6382718870580164,
                    2.8760898353630098
                ],
                "label": "O",
                "properties": {}
            },
            {
                "species": [
                    {
                        "element": "O",
                        "occu": 1
                    }
                ],
                "abc": [
                    0.05591727,
                    0.83656376,
                    0.92744604
                ],
                "xyz": [
                    13.199582899831306,
                    0.45393397514475353,
                    -0.10420618433799023
                ],
                "label": "O",
                "properties": {}
            },
            {
                "species": [
                    {
                        "element": "O",
                        "occu": 1
                    }
                ],
                "abc": [
                    0.00032533,
                    0.99277455,
                    0.50755078
                ],
                "xyz": [
                    11.591511585,
                    -1.4994042993366792,
                    1.4470814971809003
                ],
                "label": "O",
                "properties": {}
            },
            {
                "species": [
                    {
                        "element": "O",
                        "occu": 1
                    }
                ],
                "abc": [
                    0.48522377,
                    0.49277455,
                    0.49244922
                ],
                "xyz": [
                    3.863837195,
                    1.4994042993366792,
                    1.4470814971808998
                ],
                "label": "O",
                "properties": {}
            }
        ]
    },
    "spacegroup": {
        "source": "spglib",
        "symbol": "Ima2",
        "number": 46,
        "point_group": "mm2",
        "crystal_system": "orthorhombic",
        "hall": "I 2 -2a"
    },
    "dielectric": {
        "epsilon_ionic": [
            [
                11.70475758,
                0.0,
                -1.391e-05
            ],
            [
                0.0,
                10.34703003,
                4.3e-07
            ],
            [
                -1.391e-05,
                4.3e-07,
                19.88039283
            ]
        ],
        "epsilon_ionic_avg": 13.977393480000003,
        "epsilon_ionic_eig": [
            11.704757579976325,
            19.880392830023705,
            10.347030029999981
        ],
        "epsilon_electronic": [
            [
                4.2672946,
                0.0,
                0.0
            ],
            [
                0.0,
                4.36890623,
                0.0
            ],
            [
                0.0,
                0.0,
                4.29461609
            ]
        ],
        "epsilon_electronic_avg": 4.310272306666667,
        "epsilon_electronic_eig": [
            4.2672946,
            4.36890623,
            4.29461609
        ]
    },
    "phonon": {
        "lowest_freq": -0.06015520885679524,
        "frequency": [
            -0.06015520885679524,
            -0.016846568678211674,
            -0.015266989490232228,
            0.7648490471677777,
            1.8180299616312414,
            2.420011911615109,
            2.571666660699419,
            2.6436976928544325,
            2.668135510360632,
            2.748796195465032,
            3.0898984905393805,
            3.2471729233502473,
            3.289117310265107,
            3.4766928366205874,
            3.557497842250636,
            3.875440609214184,
            4.077532824340841,
            4.151832967855652,
            4.242555614321789,
            4.295212486069264,
            4.606558527704012,
            4.615108261703003,
            5.014806427090101,
            5.217766997170627,
            5.63415953592177,
            6.59363028340761,
            6.706197844630964,
            6.924860051388255,
            7.005587610246365,
            7.007369924491473,
            7.042401816946892,
            7.3441234215329825,
            7.506203860582003,
            7.526863131266743,
            7.580503266840829,
            7.875703897488236,
            8.045049788902123,
            8.106465200796475,
            8.168436662916324,
            9.150206209784965,
            9.401719715983052,
            10.306552699890478,
            10.587675368323609,
            10.632697067383654,
            13.238716789926636,
            17.318398800179818,
            17.711790603900397,
            17.961677943610862,
            18.162966519821207,
            19.25947569664629,
            19.341194526966277,
            19.950991305754282,
            20.70730779048821,
            22.632253338531964
        ]
    },
    "born_effective_charge": {
        "avg_abs_trace": 2.548429814814815,
        "tensors": [
            [
                [
                    2.35761,
                    -0.03087,
                    -0.00653
                ],
                [
                    0.04567,
                    2.89491,
                    -0.00907
                ],
                [
                    -0.00849,
                    -0.01226,
                    2.64399
                ]
            ],
            [
                [
                    2.35756,
                    -0.0309,
                    0.00654
                ],
                [
                    0.04555,
                    2.89485,
                    0.00903
                ],
                [
                    0.00849,
                    0.01226,
                    2.64399
                ]
            ],
            [
                [
                    2.35756,
                    0.0309,
                    0.00654
                ],
                [
                    -0.04567,
                    2.89491,
                    -0.00907
                ],
                [
                    0.00849,
                    -0.01226,
                    2.64399
                ]
            ],
            [
                [
                    2.35761,
                    0.03087,
                    -0.00653
                ],
                [
                    -0.04555,
                    2.89485,
                    0.00903
                ],
                [
                    -0.00849,
                    0.01226,
                    2.64399
                ]
            ],
            [
                [
                    3.23467,
                    -0.19035,
                    -1e-05
                ],
                [
                    0.26805,
                    3.63276,
                    1e-05
                ],
                [
                    -0.0,
                    -0.0,
                    3.54007
                ]
            ],
            [
                [
                    3.23467,
                    0.19035,
                    -1e-05
                ],
                [
                    -0.26805,
                    3.63276,
                    1e-05
                ],
                [
                    -0.0,
                    -0.0,
                    3.54007
                ]
            ],
            [
                [
                    3.12758,
                    -6e-05,
                    1e-05
                ],
                [
                    -0.0,
                    2.38336,
                    0.01216
                ],
                [
                    -0.0,
                    -0.01451,
                    2.69243
                ]
            ],
            [
                [
                    3.12758,
                    6e-05,
                    1e-05
                ],
                [
                    0.0,
                    2.38339,
                    -0.01221
                ],
                [
                    -0.0,
                    0.01451,
                    2.69243
                ]
            ],
            [
                [
                    -1.85899,
                    0.00118,
                    0.00139
                ],
                [
                    0.00063,
                    -2.70389,
                    0.23621
                ],
                [
                    0.001,
                    0.28046,
                    -2.5843
                ]
            ],
            [
                [
                    -1.85898,
                    0.00119,
                    -0.00141
                ],
                [
                    0.00057,
                    -2.7039,
                    -0.23619
                ],
                [
                    -0.001,
                    -0.28046,
                    -2.5843
                ]
            ],
            [
                [
                    -1.85898,
                    -0.00119,
                    -0.00141
                ],
                [
                    -0.00063,
                    -2.70389,
                    0.23621
                ],
                [
                    -0.001,
                    0.28046,
                    -2.5843
                ]
            ],
            [
                [
                    -1.85899,
                    -0.00118,
                    0.00139
                ],
                [
                    -0.00057,
                    -2.7039,
                    -0.23619
                ],
                [
                    0.001,
                    -0.28046,
                    -2.5843
                ]
            ],
            [
                [
                    -2.72188,
                    -0.36716,
                    -0.00793
                ],
                [
                    -0.42676,
                    -2.15277,
                    0.00043
                ],
                [
                    -0.00592,
                    0.00184,
                    -1.79237
                ]
            ],
            [
                [
                    -2.72173,
                    -0.36702,
                    0.00796
                ],
                [
                    -0.4268,
                    -2.15279,
                    -0.00042
                ],
                [
                    0.00592,
                    -0.00184,
                    -1.79237
                ]
            ],
            [
                [
                    -2.72173,
                    0.36702,
                    0.00796
                ],
                [
                    0.42676,
                    -2.15277,
                    0.00043
                ],
                [
                    0.00592,
                    0.00184,
                    -1.79237
                ]
            ],
            [
                [
                    -2.72188,
                    0.36716,
                    -0.00793
                ],
                [
                    0.4268,
                    -2.15279,
                    -0.00042
                ],
                [
                    -0.00592,
                    -0.00184,
                    -1.79237
                ]
            ],
            [
                [
                    -1.91585,
                    5e-05,
                    -1e-05
                ],
                [
                    0.0,
                    -2.09254,
                    0.56547
                ],
                [
                    -0.0,
                    0.65569,
                    -2.76714
                ]
            ],
            [
                [
                    -1.91585,
                    -5e-05,
                    -1e-05
                ],
                [
                    0.0,
                    -2.09256,
                    -0.56542
                ],
                [
                    0.0,
                    -0.65569,
                    -2.76714
                ]
            ]
        ]
    },
    "band_gap": 1.6127000000000002,
    "is_direct": false,
    "formula": "Ba2InGaO5"
}