{
    "mp_id": "mp-1226383",
    "nelements": 4,
    "nsites": 21,
    "elements": [
        "As",
        "Cs",
        "O",
        "Sn"
    ],
    "structure": {
        "@module": "pymatgen.core.structure",
        "@class": "Structure",
        "charge": null,
        "lattice": {
            "matrix": [
                [
                    11.99181231,
                    0.0,
                    0.0
                ],
                [
                    -5.99590616,
                    10.38521387,
                    0.0
                ],
                [
                    0.0,
                    0.0,
                    6.32051012
                ]
            ],
            "a": 11.99181231,
            "b": 11.991812115154502,
            "c": 6.32051012,
            "alpha": 90.0,
            "beta": 90.0,
            "gamma": 120.0000005650718,
            "volume": 787.1407536261556
        },
        "sites": [
            {
                "species": [
                    {
                        "element": "Cs",
                        "occu": 1
                    }
                ],
                "abc": [
                    0.23423507,
                    0.11711704,
                    0.26966839
                ],
                "xyz": [
                    2.106680214282745,
                    1.2162855082213448,
                    1.7044417880391065
                ],
                "label": "Cs",
                "properties": {}
            },
            {
                "species": [
                    {
                        "element": "Cs",
                        "occu": 1
                    }
                ],
                "abc": [
                    0.88288296,
                    0.11711704,
                    0.26966839
                ],
                "xyz": [
                    9.885143966440271,
                    1.2162855082213448,
                    1.7044417880391065
                ],
                "label": "Cs",
                "properties": {}
            },
            {
                "species": [
                    {
                        "element": "Cs",
                        "occu": 1
                    }
                ],
                "abc": [
                    0.88288296,
                    0.76576493,
                    0.26966839
                ],
                "xyz": [
                    5.995912087118268,
                    7.952632572195578,
                    1.7044417880391065
                ],
                "label": "Cs",
                "properties": {}
            },
            {
                "species": [
                    {
                        "element": "Cs",
                        "occu": 1
                    }
                ],
                "abc": [
                    0.76576493,
                    0.88288296,
                    0.73033161
                ],
                "xyz": [
                    3.8892259357172563,
                    9.168928361778654,
                    4.616068331960893
                ],
                "label": "Cs",
                "properties": {}
            },
            {
                "species": [
                    {
                        "element": "Cs",
                        "occu": 1
                    }
                ],
                "abc": [
                    0.11711704,
                    0.88288296,
                    0.73033161
                ],
                "xyz": [
                    -3.8892378164402706,
                    9.168928361778654,
                    4.616068331960893
                ],
                "label": "Cs",
                "properties": {}
            },
            {
                "species": [
                    {
                        "element": "Cs",
                        "occu": 1
                    }
                ],
                "abc": [
                    0.11711704,
                    0.23423507,
                    0.73033161
                ],
                "xyz": [
                    -5.937118268573016e-06,
                    2.4325812978044206,
                    4.616068331960893
                ],
                "label": "Cs",
                "properties": {}
            },
            {
                "species": [
                    {
                        "element": "Cs",
                        "occu": 1
                    }
                ],
                "abc": [
                    0.90966111,
                    0.45483055,
                    0.24827034
                ],
                "xyz": [
                    8.181364000325077,
                    4.723512536359729,
                    1.5691951964658408
                ],
                "label": "Cs",
                "properties": {}
            },
            {
                "species": [
                    {
                        "element": "Cs",
                        "occu": 1
                    }
                ],
                "abc": [
                    0.54516945,
                    0.45483055,
                    0.24827034
                ],
                "xyz": [
                    3.810448425044742,
                    4.723512536359729,
                    1.5691951964658408
                ],
                "label": "Cs",
                "properties": {}
            },
            {
                "species": [
                    {
                        "element": "Cs",
                        "occu": 1
                    }
                ],
                "abc": [
                    0.54516945,
                    0.09033889,
                    0.24827034
                ],
                "xyz": [
                    5.995906214507368,
                    0.9381886934284043,
                    1.5691951964658408
                ],
                "label": "Cs",
                "properties": {}
            },
            {
                "species": [
                    {
                        "element": "Cs",
                        "occu": 1
                    }
                ],
                "abc": [
                    0.09033889,
                    0.54516945,
                    0.75172966
                ],
                "xyz": [
                    -2.185457850325076,
                    5.661701333640272,
                    4.751314923534159
                ],
                "label": "Cs",
                "properties": {}
            },
            {
                "species": [
                    {
                        "element": "Cs",
                        "occu": 1
                    }
                ],
                "abc": [
                    0.45483055,
                    0.54516945,
                    0.75172966
                ],
                "xyz": [
                    2.185457724955258,
                    5.661701333640272,
                    4.751314923534159
                ],
                "label": "Cs",
                "properties": {}
            },
            {
                "species": [
                    {
                        "element": "Cs",
                        "occu": 1
                    }
                ],
                "abc": [
                    0.45483055,
                    0.90966111,
                    0.75172966
                ],
                "xyz": [
                    -6.450736744767482e-08,
                    9.447025176571596,
                    4.751314923534159
                ],
                "label": "Cs",
                "properties": {}
            },
            {
                "species": [
                    {
                        "element": "Sn",
                        "occu": 1
                    }
                ],
                "abc": [
                    0.666667,
                    0.333333,
                    0.74755014
                ],
                "xyz": [
                    5.995912149239491,
                    3.46173449492871,
                    4.724898225077417
                ],
                "label": "Sn",
                "properties": {}
            },
            {
                "species": [
                    {
                        "element": "Sn",
                        "occu": 1
                    }
                ],
                "abc": [
                    0.333333,
                    0.666667,
                    0.25244986
                ],
                "xyz": [
                    -5.999239489629105e-06,
                    6.92347937507129,
                    1.5956118949225833
                ],
                "label": "Sn",
                "properties": {}
            },
            {
                "species": [
                    {
                        "element": "As",
                        "occu": 1
                    }
                ],
                "abc": [
                    0.57864542,
                    0.78932271,
                    0.25043723
                ],
                "xyz": [
                    2.2063023715642274,
                    8.197285155797987,
                    1.5828910466397677
                ],
                "label": "As",
                "properties": {}
            },
            {
                "species": [
                    {
                        "element": "As",
                        "occu": 1
                    }
                ],
                "abc": [
                    0.21067729,
                    0.78932271,
                    0.25043723
                ],
                "xyz": [
                    -2.206302379457453,
                    8.197285155797987,
                    1.5828910466397677
                ],
                "label": "As",
                "properties": {}
            },
            {
                "species": [
                    {
                        "element": "As",
                        "occu": 1
                    }
                ],
                "abc": [
                    0.21067729,
                    0.42135458,
                    0.25043723
                ],
                "xyz": [
                    -2.1067725342049926e-09,
                    4.375857428404024,
                    1.5828910466397677
                ],
                "label": "As",
                "properties": {}
            },
            {
                "species": [
                    {
                        "element": "As",
                        "occu": 1
                    }
                ],
                "abc": [
                    0.42135458,
                    0.21067729,
                    0.74956277
                ],
                "xyz": [
                    3.7896037784357737,
                    2.187928714202012,
                    4.737619073360232
                ],
                "label": "As",
                "properties": {}
            },
            {
                "species": [
                    {
                        "element": "As",
                        "occu": 1
                    }
                ],
                "abc": [
                    0.78932271,
                    0.21067729,
                    0.74956277
                ],
                "xyz": [
                    8.202208529457454,
                    2.187928714202012,
                    4.737619073360232
                ],
                "label": "As",
                "properties": {}
            },
            {
                "species": [
                    {
                        "element": "As",
                        "occu": 1
                    }
                ],
                "abc": [
                    0.78932271,
                    0.57864542,
                    0.74956277
                ],
                "xyz": [
                    5.995906152106773,
                    6.009356441595974,
                    4.737619073360232
                ],
                "label": "As",
                "properties": {}
            },
            {
                "species": [
                    {
                        "element": "O",
                        "occu": 1
                    }
                ],
                "abc": [
                    0.0,
                    0.0,
                    0.5
                ],
                "xyz": [
                    0.0,
                    0.0,
                    3.16025506
                ],
                "label": "O",
                "properties": {}
            }
        ]
    },
    "spacegroup": {
        "source": "spglib",
        "symbol": "P-3m1",
        "number": 164,
        "point_group": "-3m",
        "crystal_system": "trigonal",
        "hall": "-P 3 2\""
    },
    "dielectric": {
        "epsilon_ionic": [
            [
                7.71016361,
                -3e-08,
                -3e-08
            ],
            [
                -3e-08,
                7.70978883,
                0.00012216
            ],
            [
                -3e-08,
                0.00012216,
                5.78032159
            ]
        ],
        "epsilon_ionic_avg": 7.06675801,
        "epsilon_ionic_eig": [
            7.710163610002406,
            7.709788837731888,
            5.780321582265707
        ],
        "epsilon_electronic": [
            [
                7.55928643,
                0.0,
                0.0
            ],
            [
                -0.0,
                7.55928668,
                0.0
            ],
            [
                0.0,
                0.0,
                5.38929276
            ]
        ],
        "epsilon_electronic_avg": 6.83595529,
        "epsilon_electronic_eig": [
            7.55928643,
            7.55928668,
            5.38929276
        ]
    },
    "phonon": {
        "lowest_freq": -0.07671218488465757,
        "frequency": [
            -0.07671218488465757,
            -0.07671218361028306,
            -0.04981324806596182,
            0.8055555548345004,
            0.9346856309710849,
            0.9346856362006535,
            1.027059049880259,
            1.1312738436375316,
            1.131273851198923,
            1.1700148740678789,
            1.170014878245606,
            1.2741513657508765,
            1.2741513743825086,
            1.2893133027348822,
            1.3457698038041594,
            1.3457698038041594,
            1.416965478401407,
            1.500680525080628,
            1.5042730266814304,
            1.5042730421161365,
            1.6511938272748545,
            1.7088856879354621,
            1.7609760659659306,
            1.760976079844605,
            1.8035902296663096,
            1.803590236441688,
            1.8106667130924667,
            1.8106667265902647,
            1.8418942389387334,
            1.865335695644797,
            1.8871754155976905,
            1.8871754479741363,
            2.0076705681864504,
            2.0553716308399923,
            2.055371642730792,
            2.099153934544467,
            2.0991539403658632,
            2.100681186911207,
            2.100681198545535,
            2.1065813535943114,
            2.1673995120993452,
            2.1679503686506947,
            2.331785944593139,
            2.331785944593139,
            2.385153755582299,
            2.5520564014383234,
            2.5520564014383234,
            2.7324366403969544,
            2.7324366538135583,
            2.7430536678170085,
            2.8216706152587654,
            2.940165402142196,
            3.026858455515473,
            3.026858467627047,
            5.363467476753129,
            5.873597649881952,
            5.911583482708153,
            6.43502482468249,
            6.435024919631668,
            6.947390563354153,
            6.947390651300889,
            7.492384730829071,
            7.492384844998389
        ]
    },
    "born_effective_charge": {
        "avg_abs_trace": 1.6840203174603179,
        "tensors": [
            [
                [
                    1.59117,
                    -0.03905,
                    -0.27764
                ],
                [
                    -0.03951,
                    1.63488,
                    -0.16042
                ],
                [
                    -0.28513,
                    -0.16462,
                    1.15611
                ]
            ],
            [
                [
                    1.59121,
                    0.03911,
                    0.27786
                ],
                [
                    0.03951,
                    1.63488,
                    -0.16042
                ],
                [
                    0.28513,
                    -0.16462,
                    1.15611
                ]
            ],
            [
                [
                    1.65766,
                    7e-05,
                    0.00051
                ],
                [
                    -0.0,
                    1.56973,
                    0.32026
                ],
                [
                    0.0,
                    0.32924,
                    1.15611
                ]
            ],
            [
                [
                    1.59121,
                    -0.03911,
                    -0.27786
                ],
                [
                    -0.03961,
                    1.63514,
                    -0.16078
                ],
                [
                    -0.28519,
                    -0.16465,
                    1.15649
                ]
            ],
            [
                [
                    1.59117,
                    0.03905,
                    0.27764
                ],
                [
                    0.03961,
                    1.63514,
                    -0.16078
                ],
                [
                    0.28519,
                    -0.16465,
                    1.15649
                ]
            ],
            [
                [
                    1.65766,
                    -7e-05,
                    -0.00051
                ],
                [
                    -0.0,
                    1.56995,
                    0.32119
                ],
                [
                    0.0,
                    0.32931,
                    1.15649
                ]
            ],
            [
                [
                    1.15827,
                    0.30438,
                    -0.00472
                ],
                [
                    0.30439,
                    0.80701,
                    -0.00277
                ],
                [
                    0.00325,
                    0.00188,
                    1.24922
                ]
            ],
            [
                [
                    1.15838,
                    -0.30431,
                    0.00462
                ],
                [
                    -0.30439,
                    0.80701,
                    -0.00277
                ],
                [
                    -0.00325,
                    0.00188,
                    1.24922
                ]
            ],
            [
                [
                    0.63151,
                    2e-05,
                    -9e-05
                ],
                [
                    -0.0,
                    1.33406,
                    0.00568
                ],
                [
                    0.0,
                    -0.00375,
                    1.24922
                ]
            ],
            [
                [
                    1.15838,
                    0.30431,
                    -0.00462
                ],
                [
                    0.30423,
                    0.80718,
                    -0.00259
                ],
                [
                    0.00224,
                    0.00129,
                    1.24928
                ]
            ],
            [
                [
                    1.15827,
                    -0.30438,
                    0.00472
                ],
                [
                    -0.30423,
                    0.80718,
                    -0.00259
                ],
                [
                    -0.00224,
                    0.00129,
                    1.24928
                ]
            ],
            [
                [
                    0.63151,
                    -2e-05,
                    9e-05
                ],
                [
                    0.0,
                    1.33397,
                    0.00537
                ],
                [
                    0.0,
                    -0.00258,
                    1.24928
                ]
            ],
            [
                [
                    2.3681,
                    -0.00016,
                    2e-05
                ],
                [
                    -0.0,
                    2.36809,
                    4e-05
                ],
                [
                    0.0,
                    -0.0,
                    -1.00567
                ]
            ],
            [
                [
                    2.3681,
                    0.00016,
                    -2e-05
                ],
                [
                    -0.0,
                    2.36813,
                    4e-05
                ],
                [
                    0.0,
                    -0.0,
                    -1.00592
                ]
            ],
            [
                [
                    -3.03687,
                    -0.58814,
                    -0.09597
                ],
                [
                    -0.58812,
                    -2.35791,
                    -0.0551
                ],
                [
                    -0.07109,
                    -0.04105,
                    -1.71965
                ]
            ],
            [
                [
                    -3.03756,
                    0.58835,
                    0.09597
                ],
                [
                    0.58812,
                    -2.35791,
                    -0.0551
                ],
                [
                    0.07109,
                    -0.04105,
                    -1.71965
                ]
            ],
            [
                [
                    -2.01825,
                    0.00062,
                    0.00021
                ],
                [
                    -0.0,
                    -3.37644,
                    0.11045
                ],
                [
                    0.0,
                    0.08209,
                    -1.71965
                ]
            ],
            [
                [
                    -3.03756,
                    -0.58835,
                    -0.09597
                ],
                [
                    -0.58847,
                    -2.35796,
                    -0.05551
                ],
                [
                    -0.07201,
                    -0.04158,
                    -1.71983
                ]
            ],
            [
                [
                    -3.03687,
                    0.58814,
                    0.09597
                ],
                [
                    0.58847,
                    -2.35796,
                    -0.05551
                ],
                [
                    0.07201,
                    -0.04158,
                    -1.71983
                ]
            ],
            [
                [
                    -2.01825,
                    -0.00062,
                    -0.00021
                ],
                [
                    0.0,
                    -3.37703,
                    0.11124
                ],
                [
                    0.0,
                    0.08315,
                    -1.71983
                ]
            ],
            [
                [
                    -4.12722,
                    -0.0,
                    -0.0
                ],
                [
                    -0.0,
                    -4.12714,
                    5e-05
                ],
                [
                    0.0,
                    -0.0,
                    -2.10325
                ]
            ]
        ]
    },
    "band_gap": 0.7692999999999999,
    "is_direct": true,
    "formula": "Cs12Sn2As6O"
}