{
    "mp_id": "mp-12385",
    "nelements": 4,
    "nsites": 10,
    "elements": [
        "Ba",
        "O",
        "Ta",
        "Y"
    ],
    "structure": {
        "@module": "pymatgen.core.structure",
        "@class": "Structure",
        "charge": null,
        "lattice": {
            "matrix": [
                [
                    -2.97517737,
                    2.97517737,
                    4.23544414
                ],
                [
                    2.97517737,
                    -2.97517737,
                    4.23544414
                ],
                [
                    2.97517737,
                    2.97517737,
                    -4.23544414
                ]
            ],
            "a": 5.970121257477152,
            "b": 5.970121257477152,
            "c": 5.970121257477152,
            "alpha": 120.21892724912935,
            "beta": 120.21892724912935,
            "gamma": 89.62122330519382,
            "volume": 149.9631912286455
        },
        "sites": [
            {
                "species": [
                    {
                        "element": "Ba",
                        "occu": 1
                    }
                ],
                "abc": [
                    0.75,
                    0.25,
                    0.5
                ],
                "xyz": [
                    2.220446049250313e-16,
                    2.97517737,
                    2.11772207
                ],
                "label": "Ba",
                "properties": {}
            },
            {
                "species": [
                    {
                        "element": "Ba",
                        "occu": 1
                    }
                ],
                "abc": [
                    0.25,
                    0.75,
                    0.5
                ],
                "xyz": [
                    2.97517737,
                    2.220446049250313e-16,
                    2.11772207
                ],
                "label": "Ba",
                "properties": {}
            },
            {
                "species": [
                    {
                        "element": "Y",
                        "occu": 1
                    }
                ],
                "abc": [
                    0.0,
                    0.0,
                    0.0
                ],
                "xyz": [
                    0.0,
                    0.0,
                    0.0
                ],
                "label": "Y",
                "properties": {}
            },
            {
                "species": [
                    {
                        "element": "Ta",
                        "occu": 1
                    }
                ],
                "abc": [
                    0.5,
                    0.5,
                    0.0
                ],
                "xyz": [
                    0.0,
                    0.0,
                    4.23544414
                ],
                "label": "Ta",
                "properties": {}
            },
            {
                "species": [
                    {
                        "element": "O",
                        "occu": 1
                    }
                ],
                "abc": [
                    0.70830472,
                    0.76493202,
                    0.47323674
                ],
                "xyz": [
                    1.5764395009847747,
                    1.2394869780163726,
                    4.235444140000001
                ],
                "label": "O",
                "properties": {}
            },
            {
                "species": [
                    {
                        "element": "O",
                        "occu": 1
                    }
                ],
                "abc": [
                    0.76493202,
                    0.29169528,
                    0.0566273
                ],
                "xyz": [
                    -1.239486978016373,
                    1.5764395009847751,
                    4.23544414
                ],
                "label": "O",
                "properties": {}
            },
            {
                "species": [
                    {
                        "element": "O",
                        "occu": 1
                    }
                ],
                "abc": [
                    0.23506798,
                    0.70830472,
                    0.9433727
                ],
                "xyz": [
                    4.214664348016373,
                    1.398737869015225,
                    4.440892098500626e-16
                ],
                "label": "O",
                "properties": {}
            },
            {
                "species": [
                    {
                        "element": "O",
                        "occu": 1
                    }
                ],
                "abc": [
                    0.29169528,
                    0.23506798,
                    0.52676326
                ],
                "xyz": [
                    1.3987378690152252,
                    1.7356903919836268,
                    4.440892098500626e-16
                ],
                "label": "O",
                "properties": {}
            },
            {
                "species": [
                    {
                        "element": "O",
                        "occu": 1
                    }
                ],
                "abc": [
                    0.26309948,
                    0.26309948,
                    0.0
                ],
                "xyz": [
                    0.0,
                    0.0,
                    2.2286863016060945
                ],
                "label": "O",
                "properties": {}
            },
            {
                "species": [
                    {
                        "element": "O",
                        "occu": 1
                    }
                ],
                "abc": [
                    0.73690052,
                    0.73690052,
                    0.0
                ],
                "xyz": [
                    0.0,
                    0.0,
                    6.242201978393905
                ],
                "label": "O",
                "properties": {}
            }
        ]
    },
    "spacegroup": {
        "source": "spglib",
        "symbol": "I4/m",
        "number": 87,
        "point_group": "4/m",
        "crystal_system": "tetragonal",
        "hall": "-I 4"
    },
    "dielectric": {
        "epsilon_ionic": [
            [
                26.02943272,
                -0.0028748,
                -2e-08
            ],
            [
                -0.0028748,
                26.03030308,
                -2e-08
            ],
            [
                -2e-08,
                -2e-08,
                23.59639587
            ]
        ],
        "epsilon_ionic_avg": 25.218710556666665,
        "epsilon_ionic_eig": [
            26.026960348337106,
            26.032775451662893,
            23.59639587
        ],
        "epsilon_electronic": [
            [
                4.56204372,
                1.21e-06,
                0.0
            ],
            [
                -1.21e-06,
                4.56204372,
                0.0
            ],
            [
                0.0,
                -0.0,
                4.62642495
            ]
        ],
        "epsilon_electronic_avg": 4.583504130000001,
        "epsilon_electronic_eig": [
            4.56204372,
            4.56204372,
            4.62642495
        ]
    },
    "phonon": {
        "lowest_freq": -0.027162843734958825,
        "frequency": [
            -0.027162843734958825,
            -0.027162843734958825,
            -0.017827151861389445,
            1.2661963413791455,
            1.2661963413791455,
            3.047301332854728,
            3.047301332854728,
            3.115037405097533,
            3.115037405097533,
            3.149211546541957,
            3.429899975419574,
            3.6378195090573264,
            6.169720593417085,
            6.169720593417085,
            6.538213457523744,
            6.553255372594322,
            6.553255372594322,
            6.784410152011536,
            8.147139190269314,
            8.19911753918139,
            8.19911753918139,
            11.123916568605694,
            11.155314458116324,
            11.155314458116324,
            16.150736982160726,
            16.150736982160726,
            16.343693870681857,
            16.932626200589258,
            16.933381714785753,
            23.660685054087526
        ]
    },
    "born_effective_charge": {
        "avg_abs_trace": 3.310465333333333,
        "tensors": [
            [
                [
                    2.6741,
                    -0.01781,
                    1e-05
                ],
                [
                    0.01762,
                    2.67409,
                    -2e-05
                ],
                [
                    -0.0,
                    0.0,
                    2.80223
                ]
            ],
            [
                [
                    2.6741,
                    -0.01781,
                    -1e-05
                ],
                [
                    0.01762,
                    2.67409,
                    2e-05
                ],
                [
                    -0.0,
                    0.0,
                    2.80223
                ]
            ],
            [
                [
                    4.60649,
                    0.15898,
                    0.0
                ],
                [
                    -0.15942,
                    4.60657,
                    -0.0
                ],
                [
                    -0.0,
                    0.0,
                    4.64327
                ]
            ],
            [
                [
                    6.50424,
                    -0.0225,
                    -0.0
                ],
                [
                    0.02156,
                    6.50446,
                    -0.0
                ],
                [
                    -0.0,
                    0.0,
                    6.49109
                ]
            ],
            [
                [
                    -3.3058,
                    -1.24693,
                    -0.0
                ],
                [
                    -1.20767,
                    -3.00341,
                    -0.0
                ],
                [
                    4e-05,
                    -1e-05,
                    -1.97292
                ]
            ],
            [
                [
                    -3.00343,
                    1.2078,
                    -0.0
                ],
                [
                    1.24715,
                    -3.30565,
                    -0.0
                ],
                [
                    1e-05,
                    4e-05,
                    -1.97292
                ]
            ],
            [
                [
                    -3.00324,
                    1.20783,
                    0.0
                ],
                [
                    1.24736,
                    -3.30576,
                    0.0
                ],
                [
                    -1e-05,
                    -4e-05,
                    -1.97292
                ]
            ],
            [
                [
                    -3.30568,
                    -1.24724,
                    0.0
                ],
                [
                    -1.20732,
                    -3.00345,
                    0.0
                ],
                [
                    -4e-05,
                    1e-05,
                    -1.97292
                ]
            ],
            [
                [
                    -1.9204,
                    -0.01117,
                    -3e-05
                ],
                [
                    0.01155,
                    -1.92048,
                    -5e-05
                ],
                [
                    -0.0,
                    0.0,
                    -4.42352
                ]
            ],
            [
                [
                    -1.9204,
                    -0.01117,
                    3e-05
                ],
                [
                    0.01155,
                    -1.92048,
                    5e-05
                ],
                [
                    -0.0,
                    0.0,
                    -4.42362
                ]
            ]
        ]
    },
    "band_gap": 3.6999,
    "is_direct": false,
    "formula": "Ba2YTaO6"
}