{
    "mp_id": "mp-1214487",
    "nelements": 4,
    "nsites": 30,
    "elements": [
        "Ba",
        "O",
        "Sb",
        "Zn"
    ],
    "structure": {
        "@module": "pymatgen.core.structure",
        "@class": "Structure",
        "charge": null,
        "lattice": {
            "matrix": [
                [
                    5.83504535,
                    0.0,
                    0.0
                ],
                [
                    -2.91752318,
                    5.05329827,
                    0.0
                ],
                [
                    0.0,
                    0.0,
                    14.44365041
                ]
            ],
            "a": 5.83504535,
            "b": 5.8350462647199555,
            "c": 14.44365041,
            "alpha": 90.0,
            "beta": 90.0,
            "gamma": 120.00000054015656,
            "volume": 425.88871963632505
        },
        "sites": [
            {
                "species": [
                    {
                        "element": "Ba",
                        "occu": 1
                    }
                ],
                "abc": [
                    0.333333,
                    0.666667,
                    0.08722337
                ],
                "xyz": [
                    -3.2541895103044283e-06,
                    3.36886719776609,
                    1.2598238638620816
                ],
                "label": "Ba",
                "properties": {}
            },
            {
                "species": [
                    {
                        "element": "Ba",
                        "occu": 1
                    }
                ],
                "abc": [
                    0.666667,
                    0.333333,
                    0.91277663
                ],
                "xyz": [
                    2.91752542418951,
                    1.68443107223391,
                    13.183826546137919
                ],
                "label": "Ba",
                "properties": {}
            },
            {
                "species": [
                    {
                        "element": "Ba",
                        "occu": 1
                    }
                ],
                "abc": [
                    0.666667,
                    0.333333,
                    0.58722337
                ],
                "xyz": [
                    2.91752542418951,
                    1.68443107223391,
                    8.481649068862081
                ],
                "label": "Ba",
                "properties": {}
            },
            {
                "species": [
                    {
                        "element": "Ba",
                        "occu": 1
                    }
                ],
                "abc": [
                    0.333333,
                    0.666667,
                    0.41277663
                ],
                "xyz": [
                    -3.2541895103044283e-06,
                    3.36886719776609,
                    5.962001341137918
                ],
                "label": "Ba",
                "properties": {}
            },
            {
                "species": [
                    {
                        "element": "Ba",
                        "occu": 1
                    }
                ],
                "abc": [
                    0.0,
                    0.0,
                    0.25
                ],
                "xyz": [
                    0.0,
                    0.0,
                    3.6109126025
                ],
                "label": "Ba",
                "properties": {}
            },
            {
                "species": [
                    {
                        "element": "Ba",
                        "occu": 1
                    }
                ],
                "abc": [
                    0.0,
                    0.0,
                    0.75
                ],
                "xyz": [
                    0.0,
                    0.0,
                    10.8327378075
                ],
                "label": "Ba",
                "properties": {}
            },
            {
                "species": [
                    {
                        "element": "Zn",
                        "occu": 1
                    }
                ],
                "abc": [
                    0.0,
                    0.0,
                    0.0
                ],
                "xyz": [
                    0.0,
                    0.0,
                    0.0
                ],
                "label": "Zn",
                "properties": {}
            },
            {
                "species": [
                    {
                        "element": "Zn",
                        "occu": 1
                    }
                ],
                "abc": [
                    0.0,
                    0.0,
                    0.5
                ],
                "xyz": [
                    0.0,
                    0.0,
                    7.221825205
                ],
                "label": "Zn",
                "properties": {}
            },
            {
                "species": [
                    {
                        "element": "Sb",
                        "occu": 1
                    }
                ],
                "abc": [
                    0.333333,
                    0.666667,
                    0.65120957
                ],
                "xyz": [
                    -3.2541895103044283e-06,
                    3.36886719776609,
                    9.405843372726425
                ],
                "label": "Sb",
                "properties": {}
            },
            {
                "species": [
                    {
                        "element": "Sb",
                        "occu": 1
                    }
                ],
                "abc": [
                    0.666667,
                    0.333333,
                    0.34879043
                ],
                "xyz": [
                    2.91752542418951,
                    1.68443107223391,
                    5.037807037273576
                ],
                "label": "Sb",
                "properties": {}
            },
            {
                "species": [
                    {
                        "element": "Sb",
                        "occu": 1
                    }
                ],
                "abc": [
                    0.666667,
                    0.333333,
                    0.15120957
                ],
                "xyz": [
                    2.91752542418951,
                    1.68443107223391,
                    2.1840181677264234
                ],
                "label": "Sb",
                "properties": {}
            },
            {
                "species": [
                    {
                        "element": "Sb",
                        "occu": 1
                    }
                ],
                "abc": [
                    0.333333,
                    0.666667,
                    0.84879043
                ],
                "xyz": [
                    -3.2541895103044283e-06,
                    3.36886719776609,
                    12.259632242273575
                ],
                "label": "Sb",
                "properties": {}
            },
            {
                "species": [
                    {
                        "element": "O",
                        "occu": 1
                    }
                ],
                "abc": [
                    0.51675094,
                    0.03350187,
                    0.25
                ],
                "xyz": [
                    2.917522687256782,
                    0.1692949417127649,
                    3.6109126025
                ],
                "label": "O",
                "properties": {}
            },
            {
                "species": [
                    {
                        "element": "O",
                        "occu": 1
                    }
                ],
                "abc": [
                    0.48324906,
                    0.96649813,
                    0.75
                ],
                "xyz": [
                    -5.172567822953056e-07,
                    4.884003328287235,
                    10.8327378075
                ],
                "label": "O",
                "properties": {}
            },
            {
                "species": [
                    {
                        "element": "O",
                        "occu": 1
                    }
                ],
                "abc": [
                    0.96649813,
                    0.48324906,
                    0.25
                ],
                "xyz": [
                    4.229670084976984,
                    2.442001638877126,
                    3.6109126025
                ],
                "label": "O",
                "properties": {}
            },
            {
                "species": [
                    {
                        "element": "O",
                        "occu": 1
                    }
                ],
                "abc": [
                    0.03350187,
                    0.51675094,
                    0.75
                ],
                "xyz": [
                    -1.3121479149769846,
                    2.611296631122874,
                    10.8327378075
                ],
                "label": "O",
                "properties": {}
            },
            {
                "species": [
                    {
                        "element": "O",
                        "occu": 1
                    }
                ],
                "abc": [
                    0.51675094,
                    0.48324906,
                    0.25
                ],
                "xyz": [
                    1.6053748352919182,
                    2.442001638877126,
                    3.6109126025
                ],
                "label": "O",
                "properties": {}
            },
            {
                "species": [
                    {
                        "element": "O",
                        "occu": 1
                    }
                ],
                "abc": [
                    0.48324906,
                    0.51675094,
                    0.75
                ],
                "xyz": [
                    1.3121473347080816,
                    2.611296631122874,
                    10.8327378075
                ],
                "label": "O",
                "properties": {}
            },
            {
                "species": [
                    {
                        "element": "O",
                        "occu": 1
                    }
                ],
                "abc": [
                    0.16722895,
                    0.33445791,
                    0.58295866
                ],
                "xyz": [
                    -1.9807647144709506e-07,
                    1.690115577990816,
                    8.42005108852205
                ],
                "label": "O",
                "properties": {}
            },
            {
                "species": [
                    {
                        "element": "O",
                        "occu": 1
                    }
                ],
                "abc": [
                    0.83277105,
                    0.66554209,
                    0.41704134
                ],
                "xyz": [
                    2.9175223680764706,
                    3.3631826920091843,
                    6.023599321477949
                ],
                "label": "O",
                "properties": {}
            },
            {
                "species": [
                    {
                        "element": "O",
                        "occu": 1
                    }
                ],
                "abc": [
                    0.66554209,
                    0.83277105,
                    0.58295866
                ],
                "xyz": [
                    1.4538394354758424,
                    4.208240506271084,
                    8.42005108852205
                ],
                "label": "O",
                "properties": {}
            },
            {
                "species": [
                    {
                        "element": "O",
                        "occu": 1
                    }
                ],
                "abc": [
                    0.83277105,
                    0.66554209,
                    0.08295866
                ],
                "xyz": [
                    2.9175223680764706,
                    3.3631826920091843,
                    1.1982258835220507
                ],
                "label": "O",
                "properties": {}
            },
            {
                "species": [
                    {
                        "element": "O",
                        "occu": 1
                    }
                ],
                "abc": [
                    0.33445791,
                    0.16722895,
                    0.41704134
                ],
                "xyz": [
                    1.4636827345241574,
                    0.8450577637289164,
                    6.023599321477949
                ],
                "label": "O",
                "properties": {}
            },
            {
                "species": [
                    {
                        "element": "O",
                        "occu": 1
                    }
                ],
                "abc": [
                    0.16722895,
                    0.33445791,
                    0.91704134
                ],
                "xyz": [
                    -1.9807647144709506e-07,
                    1.690115577990816,
                    13.24542452647795
                ],
                "label": "O",
                "properties": {}
            },
            {
                "species": [
                    {
                        "element": "O",
                        "occu": 1
                    }
                ],
                "abc": [
                    0.16722895,
                    0.83277105,
                    0.58295866
                ],
                "xyz": [
                    -1.4538403349250562,
                    4.208240506271084,
                    8.42005108852205
                ],
                "label": "O",
                "properties": {}
            },
            {
                "species": [
                    {
                        "element": "O",
                        "occu": 1
                    }
                ],
                "abc": [
                    0.33445791,
                    0.16722895,
                    0.08295866
                ],
                "xyz": [
                    1.4636827345241574,
                    0.8450577637289164,
                    1.1982258835220507
                ],
                "label": "O",
                "properties": {}
            },
            {
                "species": [
                    {
                        "element": "O",
                        "occu": 1
                    }
                ],
                "abc": [
                    0.83277105,
                    0.16722895,
                    0.41704134
                ],
                "xyz": [
                    4.371362504925056,
                    0.8450577637289164,
                    6.023599321477949
                ],
                "label": "O",
                "properties": {}
            },
            {
                "species": [
                    {
                        "element": "O",
                        "occu": 1
                    }
                ],
                "abc": [
                    0.66554209,
                    0.83277105,
                    0.91704134
                ],
                "xyz": [
                    1.4538394354758424,
                    4.208240506271084,
                    13.24542452647795
                ],
                "label": "O",
                "properties": {}
            },
            {
                "species": [
                    {
                        "element": "O",
                        "occu": 1
                    }
                ],
                "abc": [
                    0.83277105,
                    0.16722895,
                    0.08295866
                ],
                "xyz": [
                    4.371362504925056,
                    0.8450577637289164,
                    1.1982258835220507
                ],
                "label": "O",
                "properties": {}
            },
            {
                "species": [
                    {
                        "element": "O",
                        "occu": 1
                    }
                ],
                "abc": [
                    0.16722895,
                    0.83277105,
                    0.91704134
                ],
                "xyz": [
                    -1.4538403349250562,
                    4.208240506271084,
                    13.24542452647795
                ],
                "label": "O",
                "properties": {}
            }
        ]
    },
    "spacegroup": {
        "source": "spglib",
        "symbol": "P6_3/mmc",
        "number": 194,
        "point_group": "6/mmm",
        "crystal_system": "hexagonal",
        "hall": "-P 6c 2c"
    },
    "dielectric": {
        "epsilon_ionic": [
            [
                14.45951322,
                1e-08,
                0.0
            ],
            [
                1e-08,
                14.45954327,
                0.0
            ],
            [
                0.0,
                0.0,
                19.18389187
            ]
        ],
        "epsilon_ionic_avg": 16.03431612,
        "epsilon_ionic_eig": [
            14.459513219996673,
            14.459543270003326,
            19.18389187
        ],
        "epsilon_electronic": [
            [
                4.27740086,
                -0.0,
                0.0
            ],
            [
                0.0,
                4.27740075,
                0.0
            ],
            [
                0.0,
                -0.0,
                4.42755577
            ]
        ],
        "epsilon_electronic_avg": 4.32745246,
        "epsilon_electronic_eig": [
            4.27740086,
            4.27740075,
            4.42755577
        ]
    },
    "phonon": {
        "lowest_freq": -0.03633050814760694,
        "frequency": [
            -0.03633050814760694,
            -0.036330507643072024,
            -0.0031126409435351457,
            1.1926888523247419,
            1.192688865644233,
            1.3396399588080765,
            1.3396399761396083,
            1.511580507896333,
            1.5773806881541363,
            1.577380711395209,
            2.440439706977023,
            2.635378657701415,
            2.7193652725853594,
            2.8136163647960126,
            2.8810355262476204,
            2.8919193211719905,
            3.0991715796934,
            3.0991716191233127,
            3.12932183747876,
            3.129321872623774,
            3.2484241219565733,
            3.2484241670984866,
            3.3634467367964773,
            3.46718381319225,
            3.4671838590104396,
            3.4903432341747265,
            3.4903432726867187,
            3.6133831111569887,
            3.613383158503225,
            3.7091144064081645,
            4.291785327643989,
            4.79785737582746,
            4.7978574165790056,
            4.809138905016454,
            5.025026685059623,
            5.045990579409823,
            5.045990652061603,
            5.094588313661353,
            5.094588361633851,
            5.441774870130599,
            5.581364119729911,
            5.581364141624212,
            5.976455755624191,
            5.9764558169649264,
            6.44434882054466,
            6.653767091975952,
            6.759103399535449,
            6.75910345377344,
            7.624001269217221,
            7.6240012852455585,
            7.882300078251608,
            7.882300109257802,
            8.23529740756508,
            8.310314130361562,
            8.629042446051706,
            8.825107525236238,
            8.8251075390831,
            8.96635269581193,
            8.966352723069404,
            10.302797606514657,
            11.04561375974289,
            11.045613859311878,
            11.0657379683011,
            11.09655570850573,
            11.096555807617618,
            11.42033526421855,
            12.163324155082362,
            12.163324175175564,
            12.294412809990908,
            12.294412819930388,
            14.405910235596801,
            14.405910286492606,
            14.449463807224031,
            14.449463857966427,
            14.817350411096792,
            17.027791820749325,
            17.821006097390544,
            17.909428619756312,
            18.04016933184263,
            18.04016939958039,
            18.101541291567,
            18.101541426583196,
            19.32137522129055,
            19.3213752845366,
            19.345929760351655,
            19.345929823517427,
            20.54383559182228,
            21.534944266145427,
            22.064869690850994,
            22.1976831207091
        ]
    },
    "born_effective_charge": {
        "avg_abs_trace": 2.582861777777778,
        "tensors": [
            [
                [
                    2.85659,
                    -0.00011,
                    -2e-05
                ],
                [
                    0.0,
                    2.85659,
                    2e-05
                ],
                [
                    0.0,
                    0.0,
                    2.73439
                ]
            ],
            [
                [
                    2.85659,
                    0.00011,
                    2e-05
                ],
                [
                    0.0,
                    2.85655,
                    -1e-05
                ],
                [
                    0.0,
                    0.0,
                    2.73432
                ]
            ],
            [
                [
                    2.85659,
                    0.00011,
                    -2e-05
                ],
                [
                    0.0,
                    2.85655,
                    1e-05
                ],
                [
                    0.0,
                    0.0,
                    2.73439
                ]
            ],
            [
                [
                    2.85659,
                    -0.00011,
                    2e-05
                ],
                [
                    0.0,
                    2.85659,
                    -2e-05
                ],
                [
                    0.0,
                    0.0,
                    2.73432
                ]
            ],
            [
                [
                    2.7958,
                    8e-05,
                    -0.0
                ],
                [
                    0.0,
                    2.79577,
                    -0.0
                ],
                [
                    0.0,
                    0.0,
                    2.58143
                ]
            ],
            [
                [
                    2.7958,
                    -8e-05,
                    -0.0
                ],
                [
                    0.0,
                    2.7958,
                    -0.0
                ],
                [
                    0.0,
                    0.0,
                    2.58143
                ]
            ],
            [
                [
                    2.82727,
                    0.0,
                    -0.0
                ],
                [
                    0.0,
                    2.82726,
                    1e-05
                ],
                [
                    0.0,
                    0.0,
                    2.74366
                ]
            ],
            [
                [
                    2.82727,
                    0.0,
                    -0.0
                ],
                [
                    0.0,
                    2.82726,
                    -1e-05
                ],
                [
                    0.0,
                    0.0,
                    2.74366
                ]
            ],
            [
                [
                    3.77685,
                    -5e-05,
                    -2e-05
                ],
                [
                    0.0,
                    3.77688,
                    6e-05
                ],
                [
                    0.0,
                    0.0,
                    4.77035
                ]
            ],
            [
                [
                    3.77685,
                    5e-05,
                    2e-05
                ],
                [
                    0.0,
                    3.77678,
                    0.0
                ],
                [
                    0.0,
                    0.0,
                    4.77045
                ]
            ],
            [
                [
                    3.77685,
                    5e-05,
                    -2e-05
                ],
                [
                    0.0,
                    3.77678,
                    -0.0
                ],
                [
                    0.0,
                    0.0,
                    4.77035
                ]
            ],
            [
                [
                    3.77685,
                    -5e-05,
                    2e-05
                ],
                [
                    0.0,
                    3.77688,
                    -6e-05
                ],
                [
                    0.0,
                    0.0,
                    4.77045
                ]
            ],
            [
                [
                    -1.74842,
                    -0.00041,
                    -0.0
                ],
                [
                    0.0,
                    -2.0281,
                    -0.0
                ],
                [
                    0.0,
                    1e-05,
                    -2.54984
                ]
            ],
            [
                [
                    -1.74842,
                    0.00041,
                    -0.0
                ],
                [
                    -0.0,
                    -2.02787,
                    -0.0
                ],
                [
                    0.0,
                    -1e-05,
                    -2.54984
                ]
            ],
            [
                [
                    -1.95848,
                    -0.12111,
                    -0.0
                ],
                [
                    -0.12079,
                    -1.81849,
                    -0.0
                ],
                [
                    -1e-05,
                    -1e-05,
                    -2.54984
                ]
            ],
            [
                [
                    -1.95835,
                    -0.12094,
                    -0.0
                ],
                [
                    -0.12112,
                    -1.81847,
                    -0.0
                ],
                [
                    1e-05,
                    1e-05,
                    -2.54984
                ]
            ],
            [
                [
                    -1.95835,
                    0.12094,
                    -0.0
                ],
                [
                    0.12079,
                    -1.81849,
                    -0.0
                ],
                [
                    1e-05,
                    -1e-05,
                    -2.54984
                ]
            ],
            [
                [
                    -1.95848,
                    0.12111,
                    -0.0
                ],
                [
                    0.12112,
                    -1.81847,
                    -0.0
                ],
                [
                    -1e-05,
                    1e-05,
                    -2.54984
                ]
            ],
            [
                [
                    -1.84081,
                    -0.00015,
                    -7e-05
                ],
                [
                    -0.0,
                    -2.56738,
                    -0.42565
                ],
                [
                    0.0,
                    -0.4498,
                    -2.11426
                ]
            ],
            [
                [
                    -1.84081,
                    0.00015,
                    7e-05
                ],
                [
                    0.0,
                    -2.56723,
                    -0.42544
                ],
                [
                    0.0,
                    -0.4498,
                    -2.1141
                ]
            ],
            [
                [
                    -2.38579,
                    -0.31448,
                    0.36846
                ],
                [
                    -0.31445,
                    -2.02252,
                    0.21266
                ],
                [
                    0.38954,
                    0.2249,
                    -2.11426
                ]
            ],
            [
                [
                    -1.84081,
                    0.00015,
                    -7e-05
                ],
                [
                    0.0,
                    -2.56723,
                    0.42544
                ],
                [
                    0.0,
                    0.4498,
                    -2.11426
                ]
            ],
            [
                [
                    -2.38574,
                    -0.31446,
                    0.36852
                ],
                [
                    -0.31455,
                    -2.02263,
                    0.21285
                ],
                [
                    0.38954,
                    0.2249,
                    -2.1141
                ]
            ],
            [
                [
                    -1.84081,
                    -0.00015,
                    7e-05
                ],
                [
                    -0.0,
                    -2.56738,
                    0.42565
                ],
                [
                    0.0,
                    0.4498,
                    -2.1141
                ]
            ],
            [
                [
                    -2.38574,
                    0.31446,
                    -0.36852
                ],
                [
                    0.31445,
                    -2.02252,
                    0.21266
                ],
                [
                    -0.38954,
                    0.2249,
                    -2.11426
                ]
            ],
            [
                [
                    -2.38574,
                    -0.31446,
                    -0.36852
                ],
                [
                    -0.31455,
                    -2.02263,
                    -0.21285
                ],
                [
                    -0.38954,
                    -0.2249,
                    -2.11426
                ]
            ],
            [
                [
                    -2.38579,
                    0.31448,
                    -0.36846
                ],
                [
                    0.31455,
                    -2.02263,
                    0.21285
                ],
                [
                    -0.38954,
                    0.2249,
                    -2.1141
                ]
            ],
            [
                [
                    -2.38579,
                    -0.31448,
                    -0.36846
                ],
                [
                    -0.31445,
                    -2.02252,
                    -0.21266
                ],
                [
                    -0.38954,
                    -0.2249,
                    -2.1141
                ]
            ],
            [
                [
                    -2.38579,
                    0.31448,
                    0.36846
                ],
                [
                    0.31455,
                    -2.02263,
                    -0.21285
                ],
                [
                    0.38954,
                    -0.2249,
                    -2.11426
                ]
            ],
            [
                [
                    -2.38574,
                    0.31446,
                    0.36852
                ],
                [
                    0.31445,
                    -2.02252,
                    -0.21266
                ],
                [
                    0.38954,
                    -0.2249,
                    -2.1141
                ]
            ]
        ]
    },
    "band_gap": 2.2459000000000002,
    "is_direct": true,
    "formula": "Ba3ZnSb2O9"
}