{
    "mp_id": "mp-1190427",
    "nelements": 3,
    "nsites": 24,
    "elements": [
        "La",
        "O",
        "Sb"
    ],
    "structure": {
        "@module": "pymatgen.core.structure",
        "@class": "Structure",
        "charge": null,
        "lattice": {
            "matrix": [
                [
                    5.38668094,
                    0.0,
                    -0.00391665
                ],
                [
                    0.0,
                    5.0931669,
                    0.0
                ],
                [
                    -4.49472036,
                    0.0,
                    12.8468945
                ]
            ],
            "a": 5.386682363895843,
            "b": 5.0931669,
            "c": 13.610481600910703,
            "alpha": 90.0,
            "beta": 109.32498017650151,
            "gamma": 90.0,
            "volume": 352.36829449720443
        },
        "sites": [
            {
                "species": [
                    {
                        "element": "La",
                        "occu": 1
                    }
                ],
                "abc": [
                    0.34505059,
                    0.19880952,
                    0.33569983
                ],
                "xyz": [
                    0.34980057573921575,
                    1.012570066668888,
                    4.311348857284611
                ],
                "label": "La",
                "properties": {}
            },
            {
                "species": [
                    {
                        "element": "La",
                        "occu": 1
                    }
                ],
                "abc": [
                    0.34505059,
                    0.30119048,
                    0.83569983
                ],
                "xyz": [
                    -1.897559604260784,
                    1.5340133833311118,
                    10.73479610728461
                ],
                "label": "La",
                "properties": {}
            },
            {
                "species": [
                    {
                        "element": "La",
                        "occu": 1
                    }
                ],
                "abc": [
                    0.65494941,
                    0.80119048,
                    0.66430017
                ],
                "xyz": [
                    0.5421600042607841,
                    4.0805968333311124,
                    8.531628992715387
                ],
                "label": "La",
                "properties": {}
            },
            {
                "species": [
                    {
                        "element": "La",
                        "occu": 1
                    }
                ],
                "abc": [
                    0.65494941,
                    0.69880952,
                    0.16430017
                ],
                "xyz": [
                    2.789520184260784,
                    3.559153516668888,
                    2.1081817427153884
                ],
                "label": "La",
                "properties": {}
            },
            {
                "species": [
                    {
                        "element": "Sb",
                        "occu": 1
                    }
                ],
                "abc": [
                    0.08156246,
                    0.24858303,
                    0.06985478
                ],
                "xyz": [
                    0.12537324679219164,
                    1.266074860297707,
                    0.897097537371751
                ],
                "label": "Sb",
                "properties": {}
            },
            {
                "species": [
                    {
                        "element": "Sb",
                        "occu": 1
                    }
                ],
                "abc": [
                    0.08156246,
                    0.25141697,
                    0.56985478
                ],
                "xyz": [
                    -2.121986933207808,
                    1.280508589702293,
                    7.320544787371751
                ],
                "label": "Sb",
                "properties": {}
            },
            {
                "species": [
                    {
                        "element": "Sb",
                        "occu": 1
                    }
                ],
                "abc": [
                    0.91843754,
                    0.75141697,
                    0.93014522
                ],
                "xyz": [
                    0.7665873332078084,
                    3.827092039702293,
                    11.945880312628248
                ],
                "label": "Sb",
                "properties": {}
            },
            {
                "species": [
                    {
                        "element": "Sb",
                        "occu": 1
                    }
                ],
                "abc": [
                    0.91843754,
                    0.74858303,
                    0.43014522
                ],
                "xyz": [
                    3.0139475132078086,
                    3.812658310297707,
                    5.522433062628249
                ],
                "label": "Sb",
                "properties": {}
            },
            {
                "species": [
                    {
                        "element": "O",
                        "occu": 1
                    }
                ],
                "abc": [
                    0.24735781,
                    0.56442848,
                    0.02744217
                ],
                "xyz": [
                    1.2090927202655601,
                    2.874728451753312,
                    0.3515778488745285
                ],
                "label": "O",
                "properties": {}
            },
            {
                "species": [
                    {
                        "element": "O",
                        "occu": 1
                    }
                ],
                "abc": [
                    0.24735781,
                    0.93557152,
                    0.52744217
                ],
                "xyz": [
                    -1.0382674597344397,
                    4.765021898246688,
                    6.775025098874529
                ],
                "label": "O",
                "properties": {}
            },
            {
                "species": [
                    {
                        "element": "O",
                        "occu": 1
                    }
                ],
                "abc": [
                    0.75264219,
                    0.43557152,
                    0.97255783
                ],
                "xyz": [
                    -0.31713214026556,
                    2.218438448246688,
                    12.49140000112547
                ],
                "label": "O",
                "properties": {}
            },
            {
                "species": [
                    {
                        "element": "O",
                        "occu": 1
                    }
                ],
                "abc": [
                    0.75264219,
                    0.06442848,
                    0.47255783
                ],
                "xyz": [
                    1.9302280397344398,
                    0.32814500175331196,
                    6.067952751125471
                ],
                "label": "O",
                "properties": {}
            },
            {
                "species": [
                    {
                        "element": "O",
                        "occu": 1
                    }
                ],
                "abc": [
                    0.00600019,
                    0.39840371,
                    0.18833646
                ],
                "xyz": [
                    -0.814198612182947,
                    2.029136588609199,
                    2.4195151314793066
                ],
                "label": "O",
                "properties": {}
            },
            {
                "species": [
                    {
                        "element": "O",
                        "occu": 1
                    }
                ],
                "abc": [
                    0.00600019,
                    0.10159629,
                    0.68833646
                ],
                "xyz": [
                    -3.061558792182947,
                    0.517446861390801,
                    8.842962381479307
                ],
                "label": "O",
                "properties": {}
            },
            {
                "species": [
                    {
                        "element": "O",
                        "occu": 1
                    }
                ],
                "abc": [
                    0.99399981,
                    0.60159629,
                    0.81166354
                ],
                "xyz": [
                    1.7061591921829478,
                    3.064030311390801,
                    10.423462718520693
                ],
                "label": "O",
                "properties": {}
            },
            {
                "species": [
                    {
                        "element": "O",
                        "occu": 1
                    }
                ],
                "abc": [
                    0.99399981,
                    0.89840371,
                    0.31166354
                ],
                "xyz": [
                    3.9535193721829476,
                    4.575720038609199,
                    4.000015468520694
                ],
                "label": "O",
                "properties": {}
            },
            {
                "species": [
                    {
                        "element": "O",
                        "occu": 1
                    }
                ],
                "abc": [
                    0.86030104,
                    0.92758476,
                    0.05579642
                ],
                "xyz": [
                    4.383377909841066,
                    4.724343996576444,
                    0.713441223149374
                ],
                "label": "O",
                "properties": {}
            },
            {
                "species": [
                    {
                        "element": "O",
                        "occu": 1
                    }
                ],
                "abc": [
                    0.86030104,
                    0.57241524,
                    0.55579642
                ],
                "xyz": [
                    2.1360177298410665,
                    2.915406353423556,
                    7.136888473149374
                ],
                "label": "O",
                "properties": {}
            },
            {
                "species": [
                    {
                        "element": "O",
                        "occu": 1
                    }
                ],
                "abc": [
                    0.13969896,
                    0.07241524,
                    0.94420358
                ],
                "xyz": [
                    -3.4914173298410667,
                    0.368822903423556,
                    12.129536626850626
                ],
                "label": "O",
                "properties": {}
            },
            {
                "species": [
                    {
                        "element": "O",
                        "occu": 1
                    }
                ],
                "abc": [
                    0.13969896,
                    0.42758476,
                    0.44420358
                ],
                "xyz": [
                    -1.2440571498410662,
                    2.177760546576444,
                    5.706089376850626
                ],
                "label": "O",
                "properties": {}
            },
            {
                "species": [
                    {
                        "element": "O",
                        "occu": 1
                    }
                ],
                "abc": [
                    0.41555642,
                    0.12226302,
                    0.1686266
                ],
                "xyz": [
                    1.4805404348510587,
                    0.622705966558038,
                    2.1647005510413067
                ],
                "label": "O",
                "properties": {}
            },
            {
                "species": [
                    {
                        "element": "O",
                        "occu": 1
                    }
                ],
                "abc": [
                    0.41555642,
                    0.37773698,
                    0.6686266
                ],
                "xyz": [
                    -0.7668197451489411,
                    1.923877483441962,
                    8.588147801041305
                ],
                "label": "O",
                "properties": {}
            },
            {
                "species": [
                    {
                        "element": "O",
                        "occu": 1
                    }
                ],
                "abc": [
                    0.58444358,
                    0.87773698,
                    0.8313734
                ],
                "xyz": [
                    -0.588579854851059,
                    4.470460933441962,
                    10.678277298958692
                ],
                "label": "O",
                "properties": {}
            },
            {
                "species": [
                    {
                        "element": "O",
                        "occu": 1
                    }
                ],
                "abc": [
                    0.58444358,
                    0.62226302,
                    0.3313734
                ],
                "xyz": [
                    1.6587803251489408,
                    3.169289416558038,
                    4.254830048958692
                ],
                "label": "O",
                "properties": {}
            }
        ]
    },
    "spacegroup": {
        "source": "spglib",
        "symbol": "P2_1/c",
        "number": 14,
        "point_group": "2/m",
        "crystal_system": "monoclinic",
        "hall": "-P 2ybc"
    },
    "dielectric": {
        "epsilon_ionic": [
            [
                10.2300968,
                0.0,
                -1.50433533
            ],
            [
                0.0,
                14.93767133,
                0.0
            ],
            [
                -1.50433533,
                0.0,
                10.27573457
            ]
        ],
        "epsilon_ionic_avg": 11.814500899999999,
        "epsilon_ionic_eig": [
            8.748407297984874,
            11.757424072015123,
            14.93767133
        ],
        "epsilon_electronic": [
            [
                3.9259917,
                0.0,
                0.0374771
            ],
            [
                0.0,
                4.05013551,
                0.0
            ],
            [
                0.03750111,
                0.0,
                4.19646429
            ]
        ],
        "epsilon_electronic_avg": 4.0575304999999995,
        "epsilon_electronic_eig": [
            3.920891654963258,
            4.201564335036742,
            4.05013551
        ]
    },
    "phonon": {
        "lowest_freq": -0.032430660339138564,
        "frequency": [
            -0.032430660339138564,
            -0.0185843775170279,
            -0.014244324754857133,
            1.8034248079880997,
            1.8612583268090153,
            1.9397089369962135,
            2.1026283479311805,
            3.072424424029577,
            3.075313723958115,
            3.3842715513253046,
            3.469456612649899,
            3.509956304990032,
            3.8586191622946857,
            3.9899278878259303,
            4.000107673874416,
            4.037406582874421,
            4.238499068018432,
            4.550894009547274,
            4.6001332542734445,
            4.971308943729661,
            5.06483232010051,
            5.196845497106456,
            5.634319165718737,
            5.710733501098059,
            6.162079457566608,
            6.319108456394886,
            6.792519950675555,
            6.95451205895997,
            7.020040081441097,
            7.409012128745112,
            7.419343291765821,
            7.488517111338123,
            7.52915864838878,
            7.636919711129572,
            8.27950411413822,
            8.417301431720592,
            8.669529032189244,
            9.142400562062797,
            9.798625533423492,
            9.847760278182447,
            10.092000835324196,
            10.260177740504078,
            10.453123206689229,
            10.547244680403969,
            12.305917205680151,
            12.479266454365085,
            12.71813891380605,
            13.987134432577582,
            14.182179932756792,
            14.319549331807753,
            14.80032090979142,
            15.398870804043062,
            15.507086958667864,
            15.56288398562155,
            15.61161038522134,
            16.30230110935,
            16.89594085884365,
            17.034112360864214,
            17.414742708450106,
            17.655216687667174,
            17.737122678475785,
            17.788573934135353,
            18.142141980967857,
            18.319710167990134,
            18.43758293868829,
            19.339162069223043,
            19.512986375008307,
            19.60637760678485,
            20.025964157312963,
            20.57945222068445,
            20.744608012431698,
            20.75498398951429
        ]
    },
    "born_effective_charge": {
        "avg_abs_trace": 2.9181475,
        "tensors": [
            [
                [
                    4.49918,
                    0.37504,
                    0.1022
                ],
                [
                    0.27574,
                    3.88231,
                    -0.05967
                ],
                [
                    -0.06456,
                    -0.13908,
                    4.39801
                ]
            ],
            [
                [
                    4.49918,
                    -0.37504,
                    0.1022
                ],
                [
                    -0.27559,
                    3.88257,
                    0.0594
                ],
                [
                    -0.06456,
                    0.13908,
                    4.39801
                ]
            ],
            [
                [
                    4.49926,
                    0.37504,
                    0.10202
                ],
                [
                    0.27559,
                    3.88257,
                    -0.0594
                ],
                [
                    -0.06457,
                    -0.13907,
                    4.39795
                ]
            ],
            [
                [
                    4.49926,
                    -0.37504,
                    0.10202
                ],
                [
                    -0.27574,
                    3.88231,
                    0.05967
                ],
                [
                    -0.06457,
                    0.13907,
                    4.39795
                ]
            ],
            [
                [
                    3.83443,
                    -0.07916,
                    0.04103
                ],
                [
                    -0.16589,
                    4.82125,
                    0.03054
                ],
                [
                    0.21573,
                    -0.01035,
                    4.82796
                ]
            ],
            [
                [
                    3.83443,
                    0.07916,
                    0.04103
                ],
                [
                    0.16595,
                    4.8213,
                    -0.03041
                ],
                [
                    0.21573,
                    0.01035,
                    4.82796
                ]
            ],
            [
                [
                    3.83444,
                    -0.07918,
                    0.04102
                ],
                [
                    -0.16595,
                    4.8213,
                    0.03041
                ],
                [
                    0.21574,
                    -0.01034,
                    4.82798
                ]
            ],
            [
                [
                    3.83444,
                    0.07918,
                    0.04102
                ],
                [
                    0.16589,
                    4.82125,
                    -0.03054
                ],
                [
                    0.21574,
                    0.01034,
                    4.82798
                ]
            ],
            [
                [
                    -2.11396,
                    -0.25082,
                    -0.57304
                ],
                [
                    -0.13459,
                    -2.15959,
                    0.25906
                ],
                [
                    -0.60861,
                    0.20178,
                    -2.26417
                ]
            ],
            [
                [
                    -2.11396,
                    0.25082,
                    -0.57304
                ],
                [
                    0.13459,
                    -2.15946,
                    -0.25959
                ],
                [
                    -0.60861,
                    -0.20178,
                    -2.26417
                ]
            ],
            [
                [
                    -2.11393,
                    -0.25081,
                    -0.57305
                ],
                [
                    -0.13459,
                    -2.15946,
                    0.25959
                ],
                [
                    -0.60863,
                    0.20177,
                    -2.26412
                ]
            ],
            [
                [
                    -2.11393,
                    0.25081,
                    -0.57305
                ],
                [
                    0.13459,
                    -2.15959,
                    -0.25906
                ],
                [
                    -0.60863,
                    -0.20177,
                    -2.26412
                ]
            ],
            [
                [
                    -2.27627,
                    0.89742,
                    -0.06226
                ],
                [
                    0.99985,
                    -2.02153,
                    0.18469
                ],
                [
                    -0.05673,
                    0.08634,
                    -2.41957
                ]
            ],
            [
                [
                    -2.27627,
                    -0.89742,
                    -0.06226
                ],
                [
                    -0.99979,
                    -2.02166,
                    -0.18454
                ],
                [
                    -0.05673,
                    -0.08634,
                    -2.41957
                ]
            ],
            [
                [
                    -2.27627,
                    0.89742,
                    -0.06235
                ],
                [
                    0.99979,
                    -2.02166,
                    0.18454
                ],
                [
                    -0.05671,
                    0.08637,
                    -2.41962
                ]
            ],
            [
                [
                    -2.27627,
                    -0.89742,
                    -0.06235
                ],
                [
                    -0.99985,
                    -2.02153,
                    -0.18469
                ],
                [
                    -0.05671,
                    -0.08637,
                    -2.41962
                ]
            ],
            [
                [
                    -1.90201,
                    -0.49616,
                    0.56232
                ],
                [
                    -0.52339,
                    -2.36143,
                    -0.19238
                ],
                [
                    0.57952,
                    -0.09676,
                    -2.16592
                ]
            ],
            [
                [
                    -1.90201,
                    0.49616,
                    0.56232
                ],
                [
                    0.52313,
                    -2.36152,
                    0.19191
                ],
                [
                    0.57952,
                    0.09676,
                    -2.16592
                ]
            ],
            [
                [
                    -1.90201,
                    -0.49615,
                    0.56229
                ],
                [
                    -0.52313,
                    -2.36152,
                    -0.19191
                ],
                [
                    0.57955,
                    -0.09674,
                    -2.16594
                ]
            ],
            [
                [
                    -1.90201,
                    0.49615,
                    0.56229
                ],
                [
                    0.52339,
                    -2.36143,
                    0.19238
                ],
                [
                    0.57955,
                    0.09674,
                    -2.16594
                ]
            ],
            [
                [
                    -2.04147,
                    0.69428,
                    -0.07005
                ],
                [
                    0.58532,
                    -2.16107,
                    0.0343
                ],
                [
                    -0.0654,
                    0.14783,
                    -2.37627
                ]
            ],
            [
                [
                    -2.04147,
                    -0.69428,
                    -0.07005
                ],
                [
                    -0.58526,
                    -2.16119,
                    -0.03424
                ],
                [
                    -0.0654,
                    -0.14783,
                    -2.37627
                ]
            ],
            [
                [
                    -2.04139,
                    0.69433,
                    -0.07013
                ],
                [
                    0.58526,
                    -2.16119,
                    0.03424
                ],
                [
                    -0.06533,
                    0.1478,
                    -2.3763
                ]
            ],
            [
                [
                    -2.04139,
                    -0.69433,
                    -0.07013
                ],
                [
                    -0.58532,
                    -2.16107,
                    -0.0343
                ],
                [
                    -0.06533,
                    -0.1478,
                    -2.3763
                ]
            ]
        ]
    },
    "band_gap": 3.0860000000000003,
    "is_direct": true,
    "formula": "LaSbO4"
}