{
    "mp_id": "mp-18502",
    "nelements": 4,
    "nsites": 28,
    "elements": [
        "Ba",
        "O",
        "Si",
        "Sn"
    ],
    "structure": {
        "@module": "pymatgen.core.structure",
        "@class": "Structure",
        "charge": null,
        "lattice": {
            "matrix": [
                [
                    6.75909985,
                    -0.0,
                    0.0
                ],
                [
                    -3.37955042,
                    5.85355291,
                    0.0
                ],
                [
                    0.0,
                    0.0,
                    9.93329648
                ]
            ],
            "a": 6.75909985,
            "b": 6.759100732456327,
            "c": 9.93329648,
            "alpha": 90.0,
            "beta": 90.0,
            "gamma": 120.00000052632981,
            "volume": 393.00837796021585
        },
        "sites": [
            {
                "species": [
                    {
                        "element": "Ba",
                        "occu": 1
                    }
                ],
                "abc": [
                    0.666667,
                    0.333333,
                    0.5
                ],
                "xyz": [
                    3.3795531395500906,
                    1.9511823521490301,
                    4.96664824
                ],
                "label": "Ba",
                "properties": {}
            },
            {
                "species": [
                    {
                        "element": "Ba",
                        "occu": 1
                    }
                ],
                "abc": [
                    0.666667,
                    0.333333,
                    0.0
                ],
                "xyz": [
                    3.3795531395500906,
                    1.9511823521490301,
                    0.0
                ],
                "label": "Ba",
                "properties": {}
            },
            {
                "species": [
                    {
                        "element": "Si",
                        "occu": 1
                    }
                ],
                "abc": [
                    0.06405612,
                    0.78036985,
                    0.75
                ],
                "xyz": [
                    -2.204337543239255,
                    4.567936206343764,
                    7.449972359999999
                ],
                "label": "Si",
                "properties": {}
            },
            {
                "species": [
                    {
                        "element": "Si",
                        "occu": 1
                    }
                ],
                "abc": [
                    0.21963015,
                    0.28368526,
                    0.75
                ],
                "xyz": [
                    0.5257734743396683,
                    1.6605666791971068,
                    7.449972359999999
                ],
                "label": "Si",
                "properties": {}
            },
            {
                "species": [
                    {
                        "element": "Si",
                        "occu": 1
                    }
                ],
                "abc": [
                    0.71631474,
                    0.93594388,
                    0.75
                ],
                "xyz": [
                    1.6785733189363592,
                    5.478597022370691,
                    7.449972359999999
                ],
                "label": "Si",
                "properties": {}
            },
            {
                "species": [
                    {
                        "element": "Si",
                        "occu": 1
                    }
                ],
                "abc": [
                    0.71631474,
                    0.78036985,
                    0.25
                ],
                "xyz": [
                    2.204343597363952,
                    4.567936206343764,
                    2.48332412
                ],
                "label": "Si",
                "properties": {}
            },
            {
                "species": [
                    {
                        "element": "Si",
                        "occu": 1
                    }
                ],
                "abc": [
                    0.21963015,
                    0.93594388,
                    0.25
                ],
                "xyz": [
                    -1.6785674188299522,
                    5.478597022370691,
                    2.48332412
                ],
                "label": "Si",
                "properties": {}
            },
            {
                "species": [
                    {
                        "element": "Si",
                        "occu": 1
                    }
                ],
                "abc": [
                    0.06405612,
                    0.28368526,
                    0.25
                ],
                "xyz": [
                    -0.5257669284972273,
                    1.6605666791971068,
                    2.48332412
                ],
                "label": "Si",
                "properties": {}
            },
            {
                "species": [
                    {
                        "element": "Sn",
                        "occu": 1
                    }
                ],
                "abc": [
                    0.333333,
                    0.666667,
                    0.5
                ],
                "xyz": [
                    -3.709550090214009e-06,
                    3.90237055785097,
                    4.96664824
                ],
                "label": "Sn",
                "properties": {}
            },
            {
                "species": [
                    {
                        "element": "Sn",
                        "occu": 1
                    }
                ],
                "abc": [
                    0.333333,
                    0.666667,
                    0.0
                ],
                "xyz": [
                    -3.709550090214009e-06,
                    3.90237055785097,
                    0.0
                ],
                "label": "Sn",
                "properties": {}
            },
            {
                "species": [
                    {
                        "element": "O",
                        "occu": 1
                    }
                ],
                "abc": [
                    0.57935883,
                    0.92599345,
                    0.61384264
                ],
                "xyz": [
                    0.7865026280844267,
                    5.4203516538884395,
                    6.0974809351859065
                ],
                "label": "O",
                "properties": {}
            },
            {
                "species": [
                    {
                        "element": "O",
                        "occu": 1
                    }
                ],
                "abc": [
                    0.07400655,
                    0.42064117,
                    0.38615736
                ],
                "xyz": [
                    -0.921360381738774,
                    2.462245344719305,
                    3.8358155448140927
                ],
                "label": "O",
                "properties": {}
            },
            {
                "species": [
                    {
                        "element": "O",
                        "occu": 1
                    }
                ],
                "abc": [
                    0.07400655,
                    0.65336538,
                    0.61384264
                ],
                "xyz": [
                    -1.7078635833884421,
                    3.824508821392256,
                    6.0974809351859065
                ],
                "label": "O",
                "properties": {}
            },
            {
                "species": [
                    {
                        "element": "O",
                        "occu": 1
                    }
                ],
                "abc": [
                    0.34663462,
                    0.42064117,
                    0.61384264
                ],
                "xyz": [
                    0.9213599653040154,
                    2.462245344719305,
                    6.0974809351859065
                ],
                "label": "O",
                "properties": {}
            },
            {
                "species": [
                    {
                        "element": "O",
                        "occu": 1
                    }
                ],
                "abc": [
                    0.07400655,
                    0.65336538,
                    0.88615736
                ],
                "xyz": [
                    -1.7078635833884421,
                    3.824508821392256,
                    8.802463784814092
                ],
                "label": "O",
                "properties": {}
            },
            {
                "species": [
                    {
                        "element": "O",
                        "occu": 1
                    }
                ],
                "abc": [
                    0.34663462,
                    0.42064117,
                    0.88615736
                ],
                "xyz": [
                    0.9213599653040154,
                    2.462245344719305,
                    8.802463784814092
                ],
                "label": "O",
                "properties": {}
            },
            {
                "species": [
                    {
                        "element": "O",
                        "occu": 1
                    }
                ],
                "abc": [
                    0.57935883,
                    0.92599345,
                    0.88615736
                ],
                "xyz": [
                    0.7865026280844267,
                    5.4203516538884395,
                    8.802463784814092
                ],
                "label": "O",
                "properties": {}
            },
            {
                "species": [
                    {
                        "element": "O",
                        "occu": 1
                    }
                ],
                "abc": [
                    0.34663462,
                    0.92599345,
                    0.11384264
                ],
                "xyz": [
                    -0.786503544817942,
                    5.4203516538884395,
                    1.1308326951859071
                ],
                "label": "O",
                "properties": {}
            },
            {
                "species": [
                    {
                        "element": "O",
                        "occu": 1
                    }
                ],
                "abc": [
                    0.57935883,
                    0.65336538,
                    0.11384264
                ],
                "xyz": [
                    1.7078629365567162,
                    3.824508821392256,
                    1.1308326951859071
                ],
                "label": "O",
                "properties": {}
            },
            {
                "species": [
                    {
                        "element": "O",
                        "occu": 1
                    }
                ],
                "abc": [
                    0.57935883,
                    0.65336538,
                    0.38615736
                ],
                "xyz": [
                    1.7078629365567162,
                    3.824508821392256,
                    3.8358155448140927
                ],
                "label": "O",
                "properties": {}
            },
            {
                "species": [
                    {
                        "element": "O",
                        "occu": 1
                    }
                ],
                "abc": [
                    0.25086874,
                    0.19503369,
                    0.25
                ],
                "xyz": [
                    1.0365206739500392,
                    1.141640023647538,
                    2.48332412
                ],
                "label": "O",
                "properties": {}
            },
            {
                "species": [
                    {
                        "element": "O",
                        "occu": 1
                    }
                ],
                "abc": [
                    0.94416495,
                    0.74913126,
                    0.25
                ],
                "xyz": [
                    3.8499783075521288,
                    4.385079466944966,
                    2.48332412
                ],
                "label": "O",
                "properties": {}
            },
            {
                "species": [
                    {
                        "element": "O",
                        "occu": 1
                    }
                ],
                "abc": [
                    0.80496631,
                    0.05583505,
                    0.25
                ],
                "xyz": [
                    5.252150298497833,
                    0.3268334194074955,
                    2.48332412
                ],
                "label": "O",
                "properties": {}
            },
            {
                "species": [
                    {
                        "element": "O",
                        "occu": 1
                    }
                ],
                "abc": [
                    0.80496631,
                    0.74913126,
                    0.75
                ],
                "xyz": [
                    2.9091208008079246,
                    4.385079466944966,
                    7.449972359999999
                ],
                "label": "O",
                "properties": {}
            },
            {
                "species": [
                    {
                        "element": "O",
                        "occu": 1
                    }
                ],
                "abc": [
                    0.94416495,
                    0.19503369,
                    0.75
                ],
                "xyz": [
                    5.722578982966608,
                    1.141640023647538,
                    7.449972359999999
                ],
                "label": "O",
                "properties": {}
            },
            {
                "species": [
                    {
                        "element": "O",
                        "occu": 1
                    }
                ],
                "abc": [
                    0.25086874,
                    0.05583505,
                    0.75
                ],
                "xyz": [
                    1.506949496225468,
                    0.3268334194074955,
                    7.449972359999999
                ],
                "label": "O",
                "properties": {}
            },
            {
                "species": [
                    {
                        "element": "O",
                        "occu": 1
                    }
                ],
                "abc": [
                    0.07400655,
                    0.42064117,
                    0.11384264
                ],
                "xyz": [
                    -0.921360381738774,
                    2.462245344719305,
                    1.1308326951859071
                ],
                "label": "O",
                "properties": {}
            },
            {
                "species": [
                    {
                        "element": "O",
                        "occu": 1
                    }
                ],
                "abc": [
                    0.34663462,
                    0.92599345,
                    0.38615736
                ],
                "xyz": [
                    -0.786503544817942,
                    5.4203516538884395,
                    3.8358155448140927
                ],
                "label": "O",
                "properties": {}
            }
        ]
    },
    "spacegroup": {
        "source": "spglib",
        "symbol": "P-6c2",
        "number": 188,
        "point_group": "-6m2",
        "crystal_system": "hexagonal",
        "hall": "P -6c 2"
    },
    "dielectric": {
        "epsilon_ionic": [
            [
                4.46625681,
                -8.67e-05,
                -0.0
            ],
            [
                -8.67e-05,
                4.46635026,
                0.0
            ],
            [
                -0.0,
                0.0,
                5.58954991
            ]
        ],
        "epsilon_ionic_avg": 4.840718993333333,
        "epsilon_ionic_eig": [
            4.466205045834987,
            4.466402024165013,
            5.58954991
        ],
        "epsilon_electronic": [
            [
                2.92262198,
                -0.0,
                0.0
            ],
            [
                -0.0,
                2.92262267,
                0.0
            ],
            [
                0.0,
                -0.0,
                2.84032512
            ]
        ],
        "epsilon_electronic_avg": 2.8951899233333336,
        "epsilon_electronic_eig": [
            2.92262198,
            2.92262267,
            2.84032512
        ]
    },
    "phonon": {
        "lowest_freq": -0.14278924127206571,
        "frequency": [
            -0.14278924127206571,
            -0.04381643011072356,
            -0.04381642492335126,
            1.8793170580612821,
            1.8843493612132594,
            2.247954379784016,
            2.2479546298425923,
            3.2103459144240136,
            3.210345967714249,
            3.365021758361384,
            3.3650221396666797,
            4.097080324765902,
            4.09708061407939,
            4.275569792913617,
            4.480047928628097,
            4.480048408694622,
            5.386692169415765,
            5.441218159376347,
            5.474309769657221,
            5.474309948236906,
            6.058928207982454,
            6.058928207982454,
            6.498462156500989,
            6.498462758243651,
            6.6014733637515,
            6.60147353035076,
            7.061409864686857,
            7.18851103861139,
            7.538798775078012,
            7.588104615158298,
            8.14652615243153,
            8.14652637743553,
            8.940118589542646,
            9.114401081624878,
            9.114401363179454,
            9.41569346755206,
            11.082016744427689,
            11.082017229610386,
            11.203350346757857,
            11.203350346757857,
            11.35627470062916,
            11.356274786713774,
            11.427319781600842,
            11.427320316284673,
            11.440024293120565,
            12.373145757568523,
            12.89782381011496,
            12.897824236466176,
            13.610461818082191,
            13.61046197071486,
            14.592778413079452,
            14.59277873966582,
            14.725275153195113,
            15.222120444393635,
            15.418285990645963,
            15.41828655336769,
            15.976286445389656,
            16.12719500168317,
            16.17924865519445,
            16.66678182030629,
            18.440670889700463,
            18.52834570362907,
            21.86942734121959,
            21.869427508850954,
            22.019059450400597,
            22.019059561395405,
            26.99255240266597,
            26.99255258375306,
            27.85343813335384,
            27.85343822109889,
            27.942503755835094,
            27.942503974498507,
            28.454837985453565,
            28.456639138899252,
            28.641267180386727,
            29.080081302407486,
            29.080081428473225,
            29.849816025808728,
            30.061744053501826,
            30.061744785196282,
            30.141711935640064,
            30.141712705935138,
            30.511421194388078,
            32.752956582904176
        ]
    },
    "born_effective_charge": {
        "avg_abs_trace": 2.339420357142857,
        "tensors": [
            [
                [
                    2.93663,
                    2e-05,
                    5e-05
                ],
                [
                    -0.0,
                    2.93667,
                    0.0
                ],
                [
                    0.0,
                    -0.0,
                    2.29508
                ]
            ],
            [
                [
                    2.93663,
                    2e-05,
                    -5e-05
                ],
                [
                    -0.0,
                    2.93667,
                    0.0
                ],
                [
                    0.0,
                    -0.0,
                    2.29508
                ]
            ],
            [
                [
                    3.16782,
                    -0.57269,
                    0.0
                ],
                [
                    -0.27295,
                    3.23411,
                    0.0
                ],
                [
                    -1e-05,
                    2e-05,
                    3.15545
                ]
            ],
            [
                [
                    2.85147,
                    0.09037,
                    0.0
                ],
                [
                    0.38981,
                    3.55038,
                    0.0
                ],
                [
                    -1e-05,
                    -2e-05,
                    3.15545
                ]
            ],
            [
                [
                    3.58369,
                    0.03268,
                    0.0
                ],
                [
                    0.33233,
                    2.81832,
                    0.0
                ],
                [
                    2e-05,
                    -0.0,
                    3.15545
                ]
            ],
            [
                [
                    3.16785,
                    0.57235,
                    0.0
                ],
                [
                    0.27295,
                    3.23411,
                    0.0
                ],
                [
                    1e-05,
                    2e-05,
                    3.15545
                ]
            ],
            [
                [
                    3.58341,
                    -0.03298,
                    0.0
                ],
                [
                    -0.33233,
                    2.81832,
                    0.0
                ],
                [
                    -2e-05,
                    -0.0,
                    3.15545
                ]
            ],
            [
                [
                    2.85141,
                    -0.09034,
                    0.0
                ],
                [
                    -0.38981,
                    3.55038,
                    0.0
                ],
                [
                    1e-05,
                    -2e-05,
                    3.15545
                ]
            ],
            [
                [
                    3.94394,
                    -0.00019,
                    0.00024
                ],
                [
                    -0.0,
                    3.94396,
                    0.0
                ],
                [
                    0.0,
                    -0.0,
                    4.39955
                ]
            ],
            [
                [
                    3.94394,
                    -0.00019,
                    -0.00024
                ],
                [
                    -0.0,
                    3.94396,
                    0.0
                ],
                [
                    0.0,
                    -0.0,
                    4.39955
                ]
            ],
            [
                [
                    -1.6452,
                    -0.12622,
                    -0.65685
                ],
                [
                    -0.20933,
                    -1.74231,
                    -0.23454
                ],
                [
                    -0.61924,
                    -0.13194,
                    -2.15103
                ]
            ],
            [
                [
                    -1.57281,
                    -0.16755,
                    0.12538
                ],
                [
                    -0.08442,
                    -1.81463,
                    -0.68592
                ],
                [
                    0.19533,
                    -0.60225,
                    -2.15106
                ]
            ],
            [
                [
                    -1.86324,
                    0.08339,
                    0.53137
                ],
                [
                    0.00016,
                    -1.52418,
                    -0.45122
                ],
                [
                    0.42389,
                    -0.47031,
                    -2.15103
                ]
            ],
            [
                [
                    -1.57275,
                    0.16756,
                    0.12498
                ],
                [
                    0.08442,
                    -1.81463,
                    0.68592
                ],
                [
                    0.19535,
                    0.60225,
                    -2.15103
                ]
            ],
            [
                [
                    -1.86324,
                    0.08339,
                    -0.53137
                ],
                [
                    0.00016,
                    -1.52418,
                    0.45122
                ],
                [
                    -0.4239,
                    0.47029,
                    -2.15106
                ]
            ],
            [
                [
                    -1.57275,
                    0.16756,
                    -0.12498
                ],
                [
                    0.08442,
                    -1.81463,
                    -0.68592
                ],
                [
                    -0.19533,
                    -0.60225,
                    -2.15106
                ]
            ],
            [
                [
                    -1.6452,
                    -0.12622,
                    0.65685
                ],
                [
                    -0.20933,
                    -1.74231,
                    0.23454
                ],
                [
                    0.61923,
                    0.13196,
                    -2.15106
                ]
            ],
            [
                [
                    -1.64499,
                    0.12615,
                    0.65645
                ],
                [
                    0.20933,
                    -1.74231,
                    -0.23454
                ],
                [
                    0.61924,
                    -0.13194,
                    -2.15103
                ]
            ],
            [
                [
                    -1.86329,
                    -0.08324,
                    -0.53137
                ],
                [
                    -0.00016,
                    -1.52418,
                    -0.45122
                ],
                [
                    -0.42389,
                    -0.47031,
                    -2.15103
                ]
            ],
            [
                [
                    -1.86329,
                    -0.08324,
                    0.53137
                ],
                [
                    -0.00016,
                    -1.52418,
                    0.45122
                ],
                [
                    0.4239,
                    0.47029,
                    -2.15106
                ]
            ],
            [
                [
                    -2.16246,
                    0.72692,
                    0.0
                ],
                [
                    0.80831,
                    -2.05173,
                    0.0
                ],
                [
                    -0.0,
                    2e-05,
                    -1.08491
                ]
            ],
            [
                [
                    -2.74439,
                    -0.47227,
                    0.0
                ],
                [
                    -0.39136,
                    -1.4697,
                    0.0
                ],
                [
                    2e-05,
                    -1e-05,
                    -1.08491
                ]
            ],
            [
                [
                    -1.41417,
                    -0.37655,
                    0.0
                ],
                [
                    -0.29555,
                    -2.79977,
                    0.0
                ],
                [
                    -2e-05,
                    -1e-05,
                    -1.08491
                ]
            ],
            [
                [
                    -2.74442,
                    0.47261,
                    0.0
                ],
                [
                    0.39136,
                    -1.4697,
                    0.0
                ],
                [
                    -2e-05,
                    -1e-05,
                    -1.08491
                ]
            ],
            [
                [
                    -2.16271,
                    -0.72677,
                    0.0
                ],
                [
                    -0.80831,
                    -2.05173,
                    0.0
                ],
                [
                    0.0,
                    2e-05,
                    -1.08491
                ]
            ],
            [
                [
                    -1.41409,
                    0.37683,
                    0.0
                ],
                [
                    0.29555,
                    -2.79977,
                    0.0
                ],
                [
                    2e-05,
                    -1e-05,
                    -1.08491
                ]
            ],
            [
                [
                    -1.57281,
                    -0.16755,
                    -0.12538
                ],
                [
                    -0.08442,
                    -1.81463,
                    0.68592
                ],
                [
                    -0.19535,
                    0.60225,
                    -2.15103
                ]
            ],
            [
                [
                    -1.64499,
                    0.12615,
                    -0.65645
                ],
                [
                    0.20933,
                    -1.74231,
                    0.23454
                ],
                [
                    -0.61923,
                    0.13196,
                    -2.15106
                ]
            ]
        ]
    },
    "band_gap": 3.8659,
    "is_direct": false,
    "formula": "BaSi3SnO9"
}