{
    "mp_id": "mp-19970",
    "nelements": 3,
    "nsites": 28,
    "elements": [
        "Cu",
        "Li",
        "O"
    ],
    "structure": {
        "@module": "pymatgen.core.structure",
        "@class": "Structure",
        "charge": null,
        "lattice": {
            "matrix": [
                [
                    8.61675481,
                    0.0,
                    0.0
                ],
                [
                    0.0,
                    8.61675481,
                    0.0
                ],
                [
                    0.0,
                    0.0,
                    3.59793236
                ]
            ],
            "a": 8.61675481,
            "b": 8.61675481,
            "c": 3.59793236,
            "alpha": 90.0,
            "beta": 90.0,
            "gamma": 90.0,
            "volume": 267.14094934738984
        },
        "sites": [
            {
                "species": [
                    {
                        "element": "Li",
                        "occu": 1
                    }
                ],
                "abc": [
                    0.66544974,
                    0.33455026,
                    0.5
                ],
                "xyz": [
                    5.734017247958249,
                    2.8827375620417506,
                    1.79896618
                ],
                "label": "Li",
                "properties": {}
            },
            {
                "species": [
                    {
                        "element": "Li",
                        "occu": 1
                    }
                ],
                "abc": [
                    0.83455026,
                    0.83455026,
                    0.0
                ],
                "xyz": [
                    7.1911149670417505,
                    7.1911149670417505,
                    0.0
                ],
                "label": "Li",
                "properties": {}
            },
            {
                "species": [
                    {
                        "element": "Li",
                        "occu": 1
                    }
                ],
                "abc": [
                    0.33455026,
                    0.66544974,
                    0.5
                ],
                "xyz": [
                    2.8827375620417506,
                    5.734017247958249,
                    1.79896618
                ],
                "label": "Li",
                "properties": {}
            },
            {
                "species": [
                    {
                        "element": "Li",
                        "occu": 1
                    }
                ],
                "abc": [
                    0.16544974,
                    0.16544974,
                    0.0
                ],
                "xyz": [
                    1.4256398429582495,
                    1.4256398429582495,
                    0.0
                ],
                "label": "Li",
                "properties": {}
            },
            {
                "species": [
                    {
                        "element": "Li",
                        "occu": 1
                    }
                ],
                "abc": [
                    0.60537782,
                    0.1380507,
                    0.0
                ],
                "xyz": [
                    5.216392242352313,
                    1.189549033248867,
                    0.0
                ],
                "label": "Li",
                "properties": {}
            },
            {
                "species": [
                    {
                        "element": "Li",
                        "occu": 1
                    }
                ],
                "abc": [
                    0.3619493,
                    0.10537782,
                    0.5
                ],
                "xyz": [
                    3.1188283717511327,
                    0.9080148373523141,
                    1.79896618
                ],
                "label": "Li",
                "properties": {}
            },
            {
                "species": [
                    {
                        "element": "Li",
                        "occu": 1
                    }
                ],
                "abc": [
                    0.6380507,
                    0.89462218,
                    0.5
                ],
                "xyz": [
                    5.497926438248866,
                    7.708739972647686,
                    1.79896618
                ],
                "label": "Li",
                "properties": {}
            },
            {
                "species": [
                    {
                        "element": "Li",
                        "occu": 1
                    }
                ],
                "abc": [
                    0.39462218,
                    0.8619493,
                    0.0
                ],
                "xyz": [
                    3.4003625676476856,
                    7.4272057767511335,
                    0.0
                ],
                "label": "Li",
                "properties": {}
            },
            {
                "species": [
                    {
                        "element": "Li",
                        "occu": 1
                    }
                ],
                "abc": [
                    0.10537782,
                    0.3619493,
                    0.5
                ],
                "xyz": [
                    0.9080148373523141,
                    3.1188283717511327,
                    1.79896618
                ],
                "label": "Li",
                "properties": {}
            },
            {
                "species": [
                    {
                        "element": "Li",
                        "occu": 1
                    }
                ],
                "abc": [
                    0.89462218,
                    0.6380507,
                    0.5
                ],
                "xyz": [
                    7.708739972647686,
                    5.497926438248866,
                    1.79896618
                ],
                "label": "Li",
                "properties": {}
            },
            {
                "species": [
                    {
                        "element": "Li",
                        "occu": 1
                    }
                ],
                "abc": [
                    0.1380507,
                    0.60537782,
                    0.0
                ],
                "xyz": [
                    1.189549033248867,
                    5.216392242352313,
                    0.0
                ],
                "label": "Li",
                "properties": {}
            },
            {
                "species": [
                    {
                        "element": "Li",
                        "occu": 1
                    }
                ],
                "abc": [
                    0.8619493,
                    0.39462218,
                    0.0
                ],
                "xyz": [
                    7.4272057767511335,
                    3.4003625676476856,
                    0.0
                ],
                "label": "Li",
                "properties": {}
            },
            {
                "species": [
                    {
                        "element": "Cu",
                        "occu": 1
                    }
                ],
                "abc": [
                    0.61319122,
                    0.61319122,
                    0.0
                ],
                "xyz": [
                    5.283718394384769,
                    5.283718394384769,
                    0.0
                ],
                "label": "Cu",
                "properties": {}
            },
            {
                "species": [
                    {
                        "element": "Cu",
                        "occu": 1
                    }
                ],
                "abc": [
                    0.88680878,
                    0.11319122,
                    0.5
                ],
                "xyz": [
                    7.641413820615231,
                    0.9753409893847681,
                    1.79896618
                ],
                "label": "Cu",
                "properties": {}
            },
            {
                "species": [
                    {
                        "element": "Cu",
                        "occu": 1
                    }
                ],
                "abc": [
                    0.11319122,
                    0.88680878,
                    0.5
                ],
                "xyz": [
                    0.9753409893847681,
                    7.641413820615231,
                    1.79896618
                ],
                "label": "Cu",
                "properties": {}
            },
            {
                "species": [
                    {
                        "element": "Cu",
                        "occu": 1
                    }
                ],
                "abc": [
                    0.38680878,
                    0.38680878,
                    0.0
                ],
                "xyz": [
                    3.333036415615232,
                    3.333036415615232,
                    0.0
                ],
                "label": "Cu",
                "properties": {}
            },
            {
                "species": [
                    {
                        "element": "O",
                        "occu": 1
                    }
                ],
                "abc": [
                    0.39878188,
                    0.60121812,
                    0.0
                ],
                "xyz": [
                    3.4362056826308427,
                    5.180549127369157,
                    0.0
                ],
                "label": "O",
                "properties": {}
            },
            {
                "species": [
                    {
                        "element": "O",
                        "occu": 1
                    }
                ],
                "abc": [
                    0.89878188,
                    0.89878188,
                    0.5
                ],
                "xyz": [
                    7.744583087630843,
                    7.744583087630843,
                    1.79896618
                ],
                "label": "O",
                "properties": {}
            },
            {
                "species": [
                    {
                        "element": "O",
                        "occu": 1
                    }
                ],
                "abc": [
                    0.60121812,
                    0.39878188,
                    0.0
                ],
                "xyz": [
                    5.180549127369157,
                    3.4362056826308427,
                    0.0
                ],
                "label": "O",
                "properties": {}
            },
            {
                "species": [
                    {
                        "element": "O",
                        "occu": 1
                    }
                ],
                "abc": [
                    0.10121812,
                    0.10121812,
                    0.5
                ],
                "xyz": [
                    0.8721717223691571,
                    0.8721717223691571,
                    1.79896618
                ],
                "label": "O",
                "properties": {}
            },
            {
                "species": [
                    {
                        "element": "O",
                        "occu": 1
                    }
                ],
                "abc": [
                    0.17750329,
                    0.38815586,
                    0.0
                ],
                "xyz": [
                    1.5295023278983249,
                    3.344643873684687,
                    0.0
                ],
                "label": "O",
                "properties": {}
            },
            {
                "species": [
                    {
                        "element": "O",
                        "occu": 1
                    }
                ],
                "abc": [
                    0.11184414,
                    0.67750329,
                    0.5
                ],
                "xyz": [
                    0.9637335313153134,
                    5.837879732898324,
                    1.79896618
                ],
                "label": "O",
                "properties": {}
            },
            {
                "species": [
                    {
                        "element": "O",
                        "occu": 1
                    }
                ],
                "abc": [
                    0.88815586,
                    0.32249671,
                    0.5
                ],
                "xyz": [
                    7.653021278684687,
                    2.778875077101675,
                    1.79896618
                ],
                "label": "O",
                "properties": {}
            },
            {
                "species": [
                    {
                        "element": "O",
                        "occu": 1
                    }
                ],
                "abc": [
                    0.82249671,
                    0.61184414,
                    0.0
                ],
                "xyz": [
                    7.087252482101675,
                    5.272110936315313,
                    0.0
                ],
                "label": "O",
                "properties": {}
            },
            {
                "species": [
                    {
                        "element": "O",
                        "occu": 1
                    }
                ],
                "abc": [
                    0.67750329,
                    0.11184414,
                    0.5
                ],
                "xyz": [
                    5.837879732898324,
                    0.9637335313153134,
                    1.79896618
                ],
                "label": "O",
                "properties": {}
            },
            {
                "species": [
                    {
                        "element": "O",
                        "occu": 1
                    }
                ],
                "abc": [
                    0.32249671,
                    0.88815586,
                    0.5
                ],
                "xyz": [
                    2.778875077101675,
                    7.653021278684687,
                    1.79896618
                ],
                "label": "O",
                "properties": {}
            },
            {
                "species": [
                    {
                        "element": "O",
                        "occu": 1
                    }
                ],
                "abc": [
                    0.38815586,
                    0.17750329,
                    0.0
                ],
                "xyz": [
                    3.344643873684687,
                    1.5295023278983249,
                    0.0
                ],
                "label": "O",
                "properties": {}
            },
            {
                "species": [
                    {
                        "element": "O",
                        "occu": 1
                    }
                ],
                "abc": [
                    0.61184414,
                    0.82249671,
                    0.0
                ],
                "xyz": [
                    5.272110936315313,
                    7.087252482101675,
                    0.0
                ],
                "label": "O",
                "properties": {}
            }
        ]
    },
    "spacegroup": {
        "source": "spglib",
        "symbol": "P4_2/mnm",
        "number": 136,
        "point_group": "4/mmm",
        "crystal_system": "tetragonal",
        "hall": "-P 4n 2n"
    },
    "dielectric": {
        "epsilon_ionic": [
            [
                15.036404,
                -2.7e-07,
                -9e-08
            ],
            [
                -2.7e-07,
                15.03639319,
                -9e-08
            ],
            [
                -9e-08,
                -9e-08,
                1.75479189
            ]
        ],
        "epsilon_ionic_avg": 10.609196359999997,
        "epsilon_ionic_eig": [
            15.036404006739549,
            15.03639318326044,
            1.7547918899999986
        ],
        "epsilon_electronic": [
            [
                5.9785833,
                -0.0,
                0.0
            ],
            [
                0.0,
                5.9785833,
                0.0
            ],
            [
                0.0,
                0.0,
                3.15188
            ]
        ],
        "epsilon_electronic_avg": 5.036348866666667,
        "epsilon_electronic_eig": [
            5.9785833,
            5.9785833,
            3.15188
        ]
    },
    "phonon": {
        "lowest_freq": -0.17071319042326794,
        "frequency": [
            -0.17071319042326794,
            -0.17071319042326794,
            -0.0437508028479667,
            3.555224560868572,
            3.588611122261365,
            3.588611122261365,
            3.6978253216857415,
            3.6978253216857415,
            3.735439738409743,
            4.186893459063179,
            4.237711926576102,
            4.237711926576102,
            4.477732394769826,
            4.650193993958434,
            5.824834521730645,
            5.8675474006862185,
            6.215189137109816,
            6.215189137109816,
            6.423335135165563,
            6.423335135165563,
            6.6564235786851516,
            6.674255207998874,
            6.801059980175973,
            6.801059980175973,
            7.487888519345194,
            7.8919940022426145,
            8.084621204653818,
            8.535634546136455,
            8.566933914338835,
            8.817891646687546,
            8.817891646687546,
            8.825741979596007,
            8.825741979596007,
            10.32146198589136,
            10.501469396717468,
            10.870426391509374,
            11.716035198481016,
            11.93000411904121,
            11.93000411904121,
            12.68811617036587,
            12.769250153387025,
            13.088110615431246,
            13.107661247482834,
            13.107661247482834,
            13.425042809207312,
            13.667411246978231,
            13.667411246978231,
            14.161327593360415,
            14.866036377513337,
            14.88669723272783,
            14.986251249065718,
            14.986251249065718,
            15.394277749837928,
            15.422909419718016,
            15.422909419718016,
            15.648232958975324,
            16.004026658631584,
            16.004026658631584,
            16.35928876414894,
            16.371332466503297,
            16.50886084478314,
            16.703414599028733,
            16.733587929836595,
            16.859920797432984,
            16.859920797432984,
            17.07211981236108,
            17.07211981236108,
            17.15593881739968,
            17.15593881739968,
            17.227548966303445,
            17.348554378167133,
            17.550040983809104,
            17.550040983809104,
            17.56794425092103,
            17.991887766270146,
            18.016597109457475,
            18.129604729973046,
            18.129604729973046,
            18.645122891831978,
            19.050170858286673,
            19.050170858286673,
            19.110084099850198,
            19.363725607198937,
            19.42629893191445
        ]
    },
    "born_effective_charge": {
        "avg_abs_trace": 1.278837142857143,
        "tensors": [
            [
                [
                    1.01838,
                    -0.53548,
                    0.0
                ],
                [
                    -0.53523,
                    1.01863,
                    0.0
                ],
                [
                    0.0001,
                    -0.0001,
                    0.99519
                ]
            ],
            [
                [
                    1.01863,
                    0.53523,
                    0.0
                ],
                [
                    0.53523,
                    1.01863,
                    0.0
                ],
                [
                    -0.0001,
                    -0.0001,
                    0.99519
                ]
            ],
            [
                [
                    1.01863,
                    -0.53523,
                    0.0
                ],
                [
                    -0.53548,
                    1.01838,
                    0.0
                ],
                [
                    -0.0001,
                    0.0001,
                    0.99519
                ]
            ],
            [
                [
                    1.01838,
                    0.53548,
                    0.0
                ],
                [
                    0.53548,
                    1.01838,
                    0.0
                ],
                [
                    0.0001,
                    0.0001,
                    0.99519
                ]
            ],
            [
                [
                    0.95895,
                    -0.09792,
                    0.0
                ],
                [
                    -0.46202,
                    1.48082,
                    0.0
                ],
                [
                    -0.00024,
                    0.00015,
                    0.9963
                ]
            ],
            [
                [
                    1.48079,
                    0.46194,
                    0.0
                ],
                [
                    0.09792,
                    0.95895,
                    0.0
                ],
                [
                    -0.00015,
                    -0.00024,
                    0.9963
                ]
            ],
            [
                [
                    1.48082,
                    0.46202,
                    0.0
                ],
                [
                    0.09778,
                    0.95858,
                    0.0
                ],
                [
                    0.00015,
                    0.00024,
                    0.9963
                ]
            ],
            [
                [
                    0.95858,
                    -0.09778,
                    0.0
                ],
                [
                    -0.46194,
                    1.48079,
                    0.0
                ],
                [
                    0.00024,
                    -0.00015,
                    0.9963
                ]
            ],
            [
                [
                    0.95895,
                    0.09792,
                    0.0
                ],
                [
                    0.46194,
                    1.48079,
                    0.0
                ],
                [
                    -0.00024,
                    -0.00015,
                    0.9963
                ]
            ],
            [
                [
                    0.95858,
                    0.09778,
                    0.0
                ],
                [
                    0.46202,
                    1.48082,
                    0.0
                ],
                [
                    0.00024,
                    0.00015,
                    0.9963
                ]
            ],
            [
                [
                    1.48082,
                    -0.46202,
                    0.0
                ],
                [
                    -0.09792,
                    0.95895,
                    0.0
                ],
                [
                    0.00015,
                    -0.00024,
                    0.9963
                ]
            ],
            [
                [
                    1.48079,
                    -0.46194,
                    0.0
                ],
                [
                    -0.09778,
                    0.95858,
                    0.0
                ],
                [
                    -0.00015,
                    0.00024,
                    0.9963
                ]
            ],
            [
                [
                    1.60402,
                    0.46472,
                    0.0
                ],
                [
                    0.46472,
                    1.60401,
                    0.0
                ],
                [
                    0.00014,
                    0.00014,
                    0.31545
                ]
            ],
            [
                [
                    1.60439,
                    -0.46454,
                    0.0
                ],
                [
                    -0.46472,
                    1.60401,
                    0.0
                ],
                [
                    -0.00014,
                    0.00014,
                    0.31545
                ]
            ],
            [
                [
                    1.60402,
                    -0.46472,
                    0.0
                ],
                [
                    -0.46454,
                    1.60438,
                    0.0
                ],
                [
                    0.00014,
                    -0.00014,
                    0.31545
                ]
            ],
            [
                [
                    1.60439,
                    0.46454,
                    0.0
                ],
                [
                    0.46454,
                    1.60438,
                    0.0
                ],
                [
                    -0.00014,
                    -0.00014,
                    0.31545
                ]
            ],
            [
                [
                    -1.50513,
                    -0.01589,
                    0.0
                ],
                [
                    -0.01551,
                    -1.50502,
                    0.0
                ],
                [
                    0.00012,
                    -0.00012,
                    -0.82459
                ]
            ],
            [
                [
                    -1.50513,
                    0.01589,
                    0.0
                ],
                [
                    0.0159,
                    -1.50513,
                    0.0
                ],
                [
                    0.00012,
                    0.00012,
                    -0.82459
                ]
            ],
            [
                [
                    -1.50502,
                    -0.01551,
                    0.0
                ],
                [
                    -0.0159,
                    -1.50513,
                    0.0
                ],
                [
                    -0.00012,
                    0.00012,
                    -0.82459
                ]
            ],
            [
                [
                    -1.50502,
                    0.01551,
                    0.0
                ],
                [
                    0.01551,
                    -1.50502,
                    0.0
                ],
                [
                    -0.00012,
                    -0.00012,
                    -0.82459
                ]
            ],
            [
                [
                    -2.26917,
                    0.09664,
                    0.0
                ],
                [
                    -0.42141,
                    -1.28829,
                    0.0
                ],
                [
                    0.00045,
                    0.00024,
                    -1.23933
                ]
            ],
            [
                [
                    -1.28738,
                    0.42022,
                    0.0
                ],
                [
                    -0.09664,
                    -2.26917,
                    0.0
                ],
                [
                    -0.00024,
                    0.00045,
                    -1.23933
                ]
            ],
            [
                [
                    -1.2883,
                    0.42142,
                    0.0
                ],
                [
                    -0.09675,
                    -2.26954,
                    0.0
                ],
                [
                    0.00024,
                    -0.00045,
                    -1.23933
                ]
            ],
            [
                [
                    -2.26955,
                    0.09676,
                    0.0
                ],
                [
                    -0.42021,
                    -1.28738,
                    0.0
                ],
                [
                    -0.00045,
                    -0.00024,
                    -1.23933
                ]
            ],
            [
                [
                    -2.26917,
                    -0.09664,
                    0.0
                ],
                [
                    0.42021,
                    -1.28738,
                    0.0
                ],
                [
                    0.00045,
                    -0.00024,
                    -1.23933
                ]
            ],
            [
                [
                    -2.26955,
                    -0.09676,
                    0.0
                ],
                [
                    0.42141,
                    -1.28829,
                    0.0
                ],
                [
                    -0.00045,
                    0.00024,
                    -1.23933
                ]
            ],
            [
                [
                    -1.2883,
                    -0.42142,
                    0.0
                ],
                [
                    0.09664,
                    -2.26917,
                    0.0
                ],
                [
                    0.00024,
                    0.00045,
                    -1.23933
                ]
            ],
            [
                [
                    -1.28738,
                    -0.42022,
                    0.0
                ],
                [
                    0.09675,
                    -2.26954,
                    0.0
                ],
                [
                    -0.00024,
                    -0.00045,
                    -1.23933
                ]
            ]
        ]
    },
    "band_gap": 1.3814000000000002,
    "is_direct": false,
    "formula": "Li3CuO3"
}