{
    "mp_id": "mp-1206230",
    "nelements": 3,
    "nsites": 6,
    "elements": [
        "O",
        "Rb",
        "Tl"
    ],
    "structure": {
        "@module": "pymatgen.core.structure",
        "@class": "Structure",
        "charge": null,
        "lattice": {
            "matrix": [
                [
                    6.69914849,
                    -1.83383091,
                    -0.00021204
                ],
                [
                    6.69914849,
                    1.83383091,
                    -0.00021204
                ],
                [
                    -1.83761293,
                    0.0,
                    6.11498139
                ]
            ],
            "a": 6.945612020729467,
            "b": 6.945612020729467,
            "c": 6.385124797570484,
            "alpha": 106.11778016097693,
            "beta": 106.11778016097693,
            "gamma": 30.61832087997664,
            "volume": 150.24495479449038
        },
        "sites": [
            {
                "species": [
                    {
                        "element": "Rb",
                        "occu": 1
                    }
                ],
                "abc": [
                    0.12461124,
                    0.12461124,
                    0.34327189
                ],
                "xyz": [
                    1.0387775369965175,
                    0.0,
                    2.0990483739254677
                ],
                "label": "Rb",
                "properties": {}
            },
            {
                "species": [
                    {
                        "element": "Rb",
                        "occu": 1
                    }
                ],
                "abc": [
                    0.87538876,
                    0.87538876,
                    0.65672811
                ],
                "xyz": [
                    10.521906513003483,
                    0.0,
                    4.015508936074531
                ],
                "label": "Rb",
                "properties": {}
            },
            {
                "species": [
                    {
                        "element": "Tl",
                        "occu": 1
                    }
                ],
                "abc": [
                    0.3571955,
                    0.3571955,
                    0.14807021
                ],
                "xyz": [
                    4.5137156564757746,
                    0.0,
                    0.9052950990957519
                ],
                "label": "Tl",
                "properties": {}
            },
            {
                "species": [
                    {
                        "element": "Tl",
                        "occu": 1
                    }
                ],
                "abc": [
                    0.6428045,
                    0.6428045,
                    0.85192979
                ],
                "xyz": [
                    7.046968393524224,
                    0.0,
                    5.209262210904249
                ],
                "label": "Tl",
                "properties": {}
            },
            {
                "species": [
                    {
                        "element": "O",
                        "occu": 1
                    }
                ],
                "abc": [
                    0.7508769,
                    0.7508769,
                    0.21242563
                ],
                "xyz": [
                    9.670115617270366,
                    0.0,
                    1.2986603423332737
                ],
                "label": "O",
                "properties": {}
            },
            {
                "species": [
                    {
                        "element": "O",
                        "occu": 1
                    }
                ],
                "abc": [
                    0.2491231,
                    0.2491231,
                    0.78757437
                ],
                "xyz": [
                    1.890568432729634,
                    0.0,
                    4.815896967666726
                ],
                "label": "O",
                "properties": {}
            }
        ]
    },
    "spacegroup": {
        "source": "spglib",
        "symbol": "C2/m",
        "number": 12,
        "point_group": "2/m",
        "crystal_system": "monoclinic",
        "hall": "-C 2y"
    },
    "dielectric": {
        "epsilon_ionic": [
            [
                2.60787171,
                -0.0,
                -0.22279844
            ],
            [
                -0.0,
                7.94526241,
                -1.8e-07
            ],
            [
                -0.22279844,
                -1.8e-07,
                4.95589598
            ]
        ],
        "epsilon_ionic_avg": 5.169676699999998,
        "epsilon_ionic_eig": [
            2.586917888165373,
            4.976849801834612,
            7.94526241000001
        ],
        "epsilon_electronic": [
            [
                5.02239462,
                0.0,
                0.28832144
            ],
            [
                0.0,
                5.56002114,
                0.0
            ],
            [
                0.28832294,
                0.0,
                4.65869235
            ]
        ],
        "epsilon_electronic_avg": 5.08036937,
        "epsilon_electronic_eig": [
            5.1814239927246595,
            4.4996629772753405,
            5.56002114
        ]
    },
    "phonon": {
        "lowest_freq": -0.019062167661097272,
        "frequency": [
            -0.019062167661097272,
            -0.004408822558515598,
            -0.004134412089551384,
            1.4518290035592598,
            1.7944543698382707,
            1.891087873893045,
            2.0114623421473836,
            2.155106300968573,
            2.3523840893880124,
            2.8310517090880434,
            3.105357869325094,
            3.6640669816774385,
            6.347539790134185,
            6.8530305342334294,
            7.6962230191443695,
            8.13510169371145,
            9.539124494218578,
            10.779961627835771
        ]
    },
    "born_effective_charge": {
        "avg_abs_trace": 1.5988333333333333,
        "tensors": [
            [
                [
                    1.16897,
                    0.0,
                    -0.1893
                ],
                [
                    0.00013,
                    1.07062,
                    -0.00016
                ],
                [
                    -0.23138,
                    0.0,
                    1.43437
                ]
            ],
            [
                [
                    1.16866,
                    0.0,
                    -0.18944
                ],
                [
                    -0.00013,
                    1.07062,
                    0.00016
                ],
                [
                    -0.23159,
                    0.0,
                    1.43415
                ]
            ],
            [
                [
                    0.99088,
                    0.0,
                    0.56366
                ],
                [
                    7e-05,
                    1.7984,
                    -0.00023
                ],
                [
                    0.47531,
                    0.0,
                    0.73186
                ]
            ],
            [
                [
                    0.99105,
                    0.0,
                    0.56383
                ],
                [
                    -7e-05,
                    1.7984,
                    0.00023
                ],
                [
                    0.47442,
                    0.0,
                    0.73152
                ]
            ],
            [
                [
                    -2.15969,
                    0.0,
                    -0.37431
                ],
                [
                    -0.00035,
                    -2.86902,
                    0.00012
                ],
                [
                    -0.24266,
                    0.0,
                    -2.16655
                ]
            ],
            [
                [
                    -2.15987,
                    0.0,
                    -0.37443
                ],
                [
                    0.00035,
                    -2.86902,
                    -0.00012
                ],
                [
                    -0.2441,
                    0.0,
                    -2.16535
                ]
            ]
        ]
    },
    "band_gap": 1.1963,
    "is_direct": false,
    "formula": "RbTlO"
}