{
    "mp_id": "mp-1214475",
    "nelements": 4,
    "nsites": 15,
    "elements": [
        "Ba",
        "O",
        "Ta",
        "Zn"
    ],
    "structure": {
        "@module": "pymatgen.core.structure",
        "@class": "Structure",
        "charge": null,
        "lattice": {
            "matrix": [
                [
                    5.76504062,
                    0.0,
                    0.0
                ],
                [
                    -2.88252031,
                    4.99267176,
                    0.0
                ],
                [
                    0.0,
                    0.0,
                    7.09569352
                ]
            ],
            "a": 5.76504062,
            "b": 5.765040731917164,
            "c": 7.09569352,
            "alpha": 90.0,
            "beta": 90.0,
            "gamma": 119.99999935782067,
            "volume": 204.23503081876478
        },
        "sites": [
            {
                "species": [
                    {
                        "element": "Ba",
                        "occu": 1
                    }
                ],
                "abc": [
                    0.333333,
                    0.666667,
                    0.65884992
                ],
                "xyz": [
                    -2.8825203102211816e-06,
                    3.3284495042239204,
                    4.674997107996519
                ],
                "label": "Ba",
                "properties": {}
            },
            {
                "species": [
                    {
                        "element": "Ba",
                        "occu": 1
                    }
                ],
                "abc": [
                    0.666667,
                    0.333333,
                    0.34115008
                ],
                "xyz": [
                    2.88252319252031,
                    1.66422225577608,
                    2.420696412003482
                ],
                "label": "Ba",
                "properties": {}
            },
            {
                "species": [
                    {
                        "element": "Ba",
                        "occu": 1
                    }
                ],
                "abc": [
                    0.0,
                    0.0,
                    0.0
                ],
                "xyz": [
                    0.0,
                    0.0,
                    0.0
                ],
                "label": "Ba",
                "properties": {}
            },
            {
                "species": [
                    {
                        "element": "Ta",
                        "occu": 1
                    }
                ],
                "abc": [
                    0.333333,
                    0.666667,
                    0.1751076
                ],
                "xyz": [
                    -2.8825203102211816e-06,
                    3.3284495042239204,
                    1.242509862622752
                ],
                "label": "Ta",
                "properties": {}
            },
            {
                "species": [
                    {
                        "element": "Ta",
                        "occu": 1
                    }
                ],
                "abc": [
                    0.666667,
                    0.333333,
                    0.8248924
                ],
                "xyz": [
                    2.88252319252031,
                    1.66422225577608,
                    5.853183657377248
                ],
                "label": "Ta",
                "properties": {}
            },
            {
                "species": [
                    {
                        "element": "Zn",
                        "occu": 1
                    }
                ],
                "abc": [
                    0.0,
                    0.0,
                    0.5
                ],
                "xyz": [
                    0.0,
                    0.0,
                    3.54784676
                ],
                "label": "Zn",
                "properties": {}
            },
            {
                "species": [
                    {
                        "element": "O",
                        "occu": 1
                    }
                ],
                "abc": [
                    0.17056189,
                    0.82943811,
                    0.32582902
                ],
                "xyz": [
                    -1.407575973889042,
                    4.141112228464774,
                    2.3119828658419506
                ],
                "label": "O",
                "properties": {}
            },
            {
                "species": [
                    {
                        "element": "O",
                        "occu": 1
                    }
                ],
                "abc": [
                    0.82943811,
                    0.17056189,
                    0.67417098
                ],
                "xyz": [
                    4.290096283889042,
                    0.8515595315352265,
                    4.78371065415805
                ],
                "label": "O",
                "properties": {}
            },
            {
                "species": [
                    {
                        "element": "O",
                        "occu": 1
                    }
                ],
                "abc": [
                    0.17056189,
                    0.34112379,
                    0.32582902
                ],
                "xyz": [
                    -2.8825203002291744e-08,
                    1.7031191129971703,
                    2.3119828658419506
                ],
                "label": "O",
                "properties": {}
            },
            {
                "species": [
                    {
                        "element": "O",
                        "occu": 1
                    }
                ],
                "abc": [
                    0.82943811,
                    0.65887621,
                    0.67417098
                ],
                "xyz": [
                    2.882520338825203,
                    3.2895526470028296,
                    4.78371065415805
                ],
                "label": "O",
                "properties": {}
            },
            {
                "species": [
                    {
                        "element": "O",
                        "occu": 1
                    }
                ],
                "abc": [
                    0.65887621,
                    0.82943811,
                    0.32582902
                ],
                "xyz": [
                    1.407575916238636,
                    4.141112228464774,
                    2.3119828658419506
                ],
                "label": "O",
                "properties": {}
            },
            {
                "species": [
                    {
                        "element": "O",
                        "occu": 1
                    }
                ],
                "abc": [
                    0.34112379,
                    0.17056189,
                    0.67417098
                ],
                "xyz": [
                    1.4749443937613638,
                    0.8515595315352265,
                    4.78371065415805
                ],
                "label": "O",
                "properties": {}
            },
            {
                "species": [
                    {
                        "element": "O",
                        "occu": 1
                    }
                ],
                "abc": [
                    0.5,
                    0.0,
                    0.0
                ],
                "xyz": [
                    2.88252031,
                    0.0,
                    0.0
                ],
                "label": "O",
                "properties": {}
            },
            {
                "species": [
                    {
                        "element": "O",
                        "occu": 1
                    }
                ],
                "abc": [
                    0.0,
                    0.5,
                    0.0
                ],
                "xyz": [
                    -1.441260155,
                    2.49633588,
                    0.0
                ],
                "label": "O",
                "properties": {}
            },
            {
                "species": [
                    {
                        "element": "O",
                        "occu": 1
                    }
                ],
                "abc": [
                    0.5,
                    0.5,
                    0.0
                ],
                "xyz": [
                    1.441260155,
                    2.49633588,
                    0.0
                ],
                "label": "O",
                "properties": {}
            }
        ]
    },
    "spacegroup": {
        "source": "spglib",
        "symbol": "P-3m1",
        "number": 164,
        "point_group": "-3m",
        "crystal_system": "trigonal",
        "hall": "-P 3 2\""
    },
    "dielectric": {
        "epsilon_ionic": [
            [
                23.26141568,
                -1.16e-06,
                0.0
            ],
            [
                -1.16e-06,
                23.2615972,
                0.00038747
            ],
            [
                0.0,
                0.00038747,
                20.72109703
            ]
        ],
        "epsilon_ionic_avg": 22.41470330333333,
        "epsilon_ionic_eig": [
            23.261415672589763,
            23.261597266506072,
            20.721096970904156
        ],
        "epsilon_electronic": [
            [
                4.75827707,
                4.8e-07,
                -0.0
            ],
            [
                4.8e-07,
                4.75827714,
                0.0
            ],
            [
                -0.0,
                0.0,
                4.70036283
            ]
        ],
        "epsilon_electronic_avg": 4.7389723466666664,
        "epsilon_electronic_eig": [
            4.75827662372565,
            4.75827758627435,
            4.70036283
        ]
    },
    "phonon": {
        "lowest_freq": -0.03420282061859025,
        "frequency": [
            -0.03420282061859025,
            -0.034202817188695674,
            -0.0322978142779447,
            2.7926835671771713,
            2.991648136477882,
            2.9916484346614896,
            3.1402479940854553,
            3.1402483053986,
            3.1754727338127253,
            3.869388885752228,
            3.9070914937283154,
            3.907091881556638,
            4.439745242580101,
            4.439745630670129,
            4.621519191015186,
            4.621519606147281,
            4.765685856870358,
            4.989333738100829,
            5.382738419498801,
            5.422301441106041,
            5.422301824227684,
            6.405244112307746,
            7.380129594946053,
            7.380129992337651,
            7.708232525157056,
            7.708232937339955,
            7.822558531010307,
            7.97062114074664,
            7.97062144737284,
            8.426495378181853,
            10.995450382338566,
            10.995450671294595,
            11.80537836051391,
            11.805378588240742,
            12.351053355755305,
            12.440221839156965,
            15.95893534278445,
            15.958935802213833,
            16.21596456342352,
            16.21596471413927,
            17.30019660544997,
            17.816323536507085,
            17.816324016628837,
            22.824751446990735,
            23.559480152221496
        ]
    },
    "born_effective_charge": {
        "avg_abs_trace": 3.226228,
        "tensors": [
            [
                [
                    2.68015,
                    6e-05,
                    -1e-05
                ],
                [
                    -0.0,
                    2.68014,
                    6e-05
                ],
                [
                    -0.0,
                    0.0,
                    2.9987
                ]
            ],
            [
                [
                    2.68015,
                    -6e-05,
                    1e-05
                ],
                [
                    -0.0,
                    2.6802,
                    -1e-05
                ],
                [
                    -0.0,
                    -0.0,
                    2.99853
                ]
            ],
            [
                [
                    2.95759,
                    0.0,
                    0.0
                ],
                [
                    -0.0,
                    2.95769,
                    0.00013
                ],
                [
                    -0.0,
                    0.0,
                    2.33119
                ]
            ],
            [
                [
                    6.56331,
                    -7e-05,
                    3e-05
                ],
                [
                    0.0,
                    6.56309,
                    0.00015
                ],
                [
                    -0.0,
                    -0.0,
                    6.22158
                ]
            ],
            [
                [
                    6.56331,
                    7e-05,
                    -3e-05
                ],
                [
                    0.0,
                    6.56312,
                    0.00024
                ],
                [
                    -0.0,
                    0.0,
                    6.22122
                ]
            ],
            [
                [
                    2.94197,
                    0.0,
                    0.0
                ],
                [
                    0.0,
                    2.9421,
                    -4e-05
                ],
                [
                    -0.0,
                    -0.0,
                    3.04608
                ]
            ],
            [
                [
                    -2.91045,
                    0.54266,
                    0.67685
                ],
                [
                    0.54286,
                    -2.28372,
                    -0.39079
                ],
                [
                    0.74122,
                    -0.42794,
                    -2.54354
                ]
            ],
            [
                [
                    -2.91078,
                    0.54268,
                    0.67699
                ],
                [
                    0.54281,
                    -2.28373,
                    -0.39083
                ],
                [
                    0.74109,
                    -0.42787,
                    -2.54353
                ]
            ],
            [
                [
                    -1.97035,
                    -0.00024,
                    0.0001
                ],
                [
                    -0.0,
                    -3.22413,
                    0.78131
                ],
                [
                    0.0,
                    0.85588,
                    -2.54354
                ]
            ],
            [
                [
                    -1.97035,
                    0.00024,
                    -0.0001
                ],
                [
                    -0.0,
                    -3.22413,
                    0.78129
                ],
                [
                    0.0,
                    0.85574,
                    -2.54353
                ]
            ],
            [
                [
                    -2.91078,
                    -0.54268,
                    -0.67699
                ],
                [
                    -0.54286,
                    -2.28372,
                    -0.39079
                ],
                [
                    -0.74122,
                    -0.42794,
                    -2.54354
                ]
            ],
            [
                [
                    -2.91045,
                    -0.54266,
                    -0.67685
                ],
                [
                    -0.54281,
                    -2.28373,
                    -0.39083
                ],
                [
                    -0.74109,
                    -0.42787,
                    -2.54353
                ]
            ],
            [
                [
                    -1.86991,
                    0.0,
                    0.0
                ],
                [
                    -0.0,
                    -3.999,
                    1.6527
                ],
                [
                    0.0,
                    1.39577,
                    -2.85204
                ]
            ],
            [
                [
                    -3.46671,
                    -0.92182,
                    -1.43143
                ],
                [
                    -0.92193,
                    -2.40208,
                    -0.82629
                ],
                [
                    -1.20878,
                    -0.69789,
                    -2.85204
                ]
            ],
            [
                [
                    -3.46671,
                    0.92182,
                    1.43143
                ],
                [
                    0.92193,
                    -2.40208,
                    -0.82629
                ],
                [
                    1.20878,
                    -0.69789,
                    -2.85204
                ]
            ]
        ]
    },
    "band_gap": 3.554,
    "is_direct": false,
    "formula": "Ba3Ta2ZnO9"
}