{
    "mp_id": "mp-1209248",
    "nelements": 4,
    "nsites": 12,
    "elements": [
        "Al",
        "Mo",
        "O",
        "Rb"
    ],
    "structure": {
        "@module": "pymatgen.core.structure",
        "@class": "Structure",
        "charge": null,
        "lattice": {
            "matrix": [
                [
                    5.59388977,
                    0.0,
                    0.0
                ],
                [
                    -2.79694489,
                    4.84445029,
                    0.0
                ],
                [
                    0.0,
                    0.0,
                    7.45481256
                ]
            ],
            "a": 5.59388977,
            "b": 5.593889463510894,
            "c": 7.45481256,
            "alpha": 90.0,
            "beta": 90.0,
            "gamma": 120.00000187157353,
            "volume": 202.02035795073832
        },
        "sites": [
            {
                "species": [
                    {
                        "element": "Rb",
                        "occu": 1
                    }
                ],
                "abc": [
                    0.0,
                    0.0,
                    0.0
                ],
                "xyz": [
                    0.0,
                    0.0,
                    0.0
                ],
                "label": "Rb",
                "properties": {}
            },
            {
                "species": [
                    {
                        "element": "Al",
                        "occu": 1
                    }
                ],
                "abc": [
                    0.0,
                    0.0,
                    0.5
                ],
                "xyz": [
                    0.0,
                    0.0,
                    3.72740628
                ],
                "label": "Al",
                "properties": {}
            },
            {
                "species": [
                    {
                        "element": "Mo",
                        "occu": 1
                    }
                ],
                "abc": [
                    0.333333,
                    0.666667,
                    0.27661937
                ],
                "xyz": [
                    -2.8002782199720855e-06,
                    3.2296351414834303,
                    2.062145553815287
                ],
                "label": "Mo",
                "properties": {}
            },
            {
                "species": [
                    {
                        "element": "Mo",
                        "occu": 1
                    }
                ],
                "abc": [
                    0.666667,
                    0.333333,
                    0.72338063
                ],
                "xyz": [
                    2.79694768027822,
                    1.61481514851657,
                    5.392667006184713
                ],
                "label": "Mo",
                "properties": {}
            },
            {
                "species": [
                    {
                        "element": "O",
                        "occu": 1
                    }
                ],
                "abc": [
                    0.15683424,
                    0.84316576,
                    0.34993804
                ],
                "xyz": [
                    -1.4809747131332411,
                    4.084674610550071,
                    2.6087224958137822
                ],
                "label": "O",
                "properties": {}
            },
            {
                "species": [
                    {
                        "element": "O",
                        "occu": 1
                    }
                ],
                "abc": [
                    0.84316576,
                    0.15683424,
                    0.65006196
                ],
                "xyz": [
                    4.277919593133241,
                    0.7597756794499297,
                    4.8460900641862175
                ],
                "label": "O",
                "properties": {}
            },
            {
                "species": [
                    {
                        "element": "O",
                        "occu": 1
                    }
                ],
                "abc": [
                    0.15683424,
                    0.31366748,
                    0.34993804
                ],
                "xyz": [
                    2.795376547681805e-06,
                    1.5195465144495692,
                    2.6087224958137822
                ],
                "label": "O",
                "properties": {}
            },
            {
                "species": [
                    {
                        "element": "O",
                        "occu": 1
                    }
                ],
                "abc": [
                    0.84316576,
                    0.68633252,
                    0.65006196
                ],
                "xyz": [
                    2.796942084623452,
                    3.324903775550431,
                    4.8460900641862175
                ],
                "label": "O",
                "properties": {}
            },
            {
                "species": [
                    {
                        "element": "O",
                        "occu": 1
                    }
                ],
                "abc": [
                    0.68633252,
                    0.84316576,
                    0.34993804
                ],
                "xyz": [
                    1.480980298591354,
                    4.084674610550071,
                    2.6087224958137822
                ],
                "label": "O",
                "properties": {}
            },
            {
                "species": [
                    {
                        "element": "O",
                        "occu": 1
                    }
                ],
                "abc": [
                    0.31366748,
                    0.15683424,
                    0.65006196
                ],
                "xyz": [
                    1.3159645814086458,
                    0.7597756794499297,
                    4.8460900641862175
                ],
                "label": "O",
                "properties": {}
            },
            {
                "species": [
                    {
                        "element": "O",
                        "occu": 1
                    }
                ],
                "abc": [
                    0.333333,
                    0.666667,
                    0.04293129
                ],
                "xyz": [
                    -2.8002782199720855e-06,
                    3.2296351414834303,
                    0.32004471990900235
                ],
                "label": "O",
                "properties": {}
            },
            {
                "species": [
                    {
                        "element": "O",
                        "occu": 1
                    }
                ],
                "abc": [
                    0.666667,
                    0.333333,
                    0.95706871
                ],
                "xyz": [
                    2.79694768027822,
                    1.61481514851657,
                    7.134767840090998
                ],
                "label": "O",
                "properties": {}
            }
        ]
    },
    "spacegroup": {
        "source": "spglib",
        "symbol": "P-3m1",
        "number": 164,
        "point_group": "-3m",
        "crystal_system": "trigonal",
        "hall": "-P 3 2\""
    },
    "dielectric": {
        "epsilon_ionic": [
            [
                4.38554733,
                1e-08,
                -0.0
            ],
            [
                1e-08,
                4.38607643,
                1.167e-05
            ],
            [
                -0.0,
                1.167e-05,
                2.15234555
            ]
        ],
        "epsilon_ionic_avg": 3.6413231033333346,
        "epsilon_ionic_eig": [
            4.3855473299998105,
            4.386076430061161,
            2.1523455499390307
        ],
        "epsilon_electronic": [
            [
                3.11811438,
                0.0,
                -0.0
            ],
            [
                -0.0,
                3.11811458,
                0.0
            ],
            [
                -0.0,
                -0.0,
                2.92947189
            ]
        ],
        "epsilon_electronic_avg": 3.055233616666667,
        "epsilon_electronic_eig": [
            3.11811438,
            3.11811458,
            2.92947189
        ]
    },
    "phonon": {
        "lowest_freq": -0.056521410684226045,
        "frequency": [
            -0.056521410684226045,
            -0.05652140873841365,
            -0.03182365300620392,
            1.2500841785322208,
            1.250084205903192,
            1.4024525471751834,
            1.8491428779472046,
            1.84914293742344,
            3.088973773499067,
            4.60900811244476,
            4.609008213195342,
            4.610289007271858,
            4.610289134500391,
            4.788603160471377,
            5.167813366462256,
            8.522942817547017,
            8.564508194000556,
            8.56450827960972,
            9.978276094436582,
            9.978276302628968,
            9.984212832493757,
            9.984213052801676,
            10.59036317632289,
            10.59036324555568,
            11.151224464963446,
            12.626900799285016,
            12.626901138006476,
            14.032167508546658,
            23.932365656945194,
            23.932366116490478,
            25.70478539826309,
            25.704785778581584,
            26.43358060225337,
            27.821013609677056,
            28.765833757978655,
            29.380419151471912
        ]
    },
    "born_effective_charge": {
        "avg_abs_trace": 2.1412486111111106,
        "tensors": [
            [
                [
                    1.26705,
                    0.0,
                    0.0
                ],
                [
                    -0.0,
                    1.26723,
                    1e-05
                ],
                [
                    -0.0,
                    -0.0,
                    1.24923
                ]
            ],
            [
                [
                    4.88378,
                    0.0,
                    0.0
                ],
                [
                    -0.0,
                    4.88384,
                    -0.0001
                ],
                [
                    -0.0,
                    -0.0,
                    3.85511
                ]
            ],
            [
                [
                    3.61745,
                    -0.00022,
                    2e-05
                ],
                [
                    -0.0,
                    3.61728,
                    0.00018
                ],
                [
                    -0.0,
                    -0.0,
                    3.33328
                ]
            ],
            [
                [
                    3.61745,
                    0.00022,
                    -2e-05
                ],
                [
                    -0.0,
                    3.61752,
                    8e-05
                ],
                [
                    -0.0,
                    -0.0,
                    3.33325
                ]
            ],
            [
                [
                    -2.62341,
                    1.00856,
                    0.75253
                ],
                [
                    1.0079,
                    -1.45972,
                    -0.43437
                ],
                [
                    0.70733,
                    -0.40838,
                    -1.18675
                ]
            ],
            [
                [
                    -2.62382,
                    1.00776,
                    0.75228
                ],
                [
                    1.008,
                    -1.45972,
                    -0.43436
                ],
                [
                    0.70724,
                    -0.40833,
                    -1.18698
                ]
            ],
            [
                [
                    -0.87789,
                    2e-05,
                    -0.00028
                ],
                [
                    0.0,
                    -3.20561,
                    0.86867
                ],
                [
                    0.0,
                    0.81675,
                    -1.18675
                ]
            ],
            [
                [
                    -0.87789,
                    -2e-05,
                    0.00028
                ],
                [
                    0.0,
                    -3.20578,
                    0.86854
                ],
                [
                    -0.0,
                    0.81665,
                    -1.18698
                ]
            ],
            [
                [
                    -2.62382,
                    -1.00776,
                    -0.75228
                ],
                [
                    -1.0079,
                    -1.45972,
                    -0.43437
                ],
                [
                    -0.70733,
                    -0.40838,
                    -1.18675
                ]
            ],
            [
                [
                    -2.62341,
                    -1.00856,
                    -0.75253
                ],
                [
                    -1.008,
                    -1.45972,
                    -0.43436
                ],
                [
                    -0.70724,
                    -0.40833,
                    -1.18698
                ]
            ],
            [
                [
                    -0.56775,
                    0.00015,
                    -5e-05
                ],
                [
                    -0.0,
                    -0.56778,
                    -2e-05
                ],
                [
                    0.0,
                    -0.0,
                    -2.32465
                ]
            ],
            [
                [
                    -0.56775,
                    -0.00015,
                    5e-05
                ],
                [
                    -0.0,
                    -0.56783,
                    0.0001
                ],
                [
                    0.0,
                    -0.0,
                    -2.32502
                ]
            ]
        ]
    },
    "band_gap": 3.7916,
    "is_direct": false,
    "formula": "RbAl(MoO4)2"
}