{
    "mp_id": "mp-1220757",
    "nelements": 4,
    "nsites": 12,
    "elements": [
        "La",
        "Mo",
        "Na",
        "O"
    ],
    "structure": {
        "@module": "pymatgen.core.structure",
        "@class": "Structure",
        "charge": null,
        "lattice": {
            "matrix": [
                [
                    -2.66038697,
                    2.66038695,
                    5.76290257
                ],
                [
                    2.66038697,
                    -2.66038695,
                    5.76290257
                ],
                [
                    2.66038695,
                    2.66038697,
                    -5.76290257
                ]
            ],
            "a": 6.882322542949341,
            "b": 6.882322542949341,
            "c": 6.882322542949341,
            "alpha": 134.51954555856048,
            "beta": 134.51954555856048,
            "gamma": 66.27764081550761,
            "volume": 163.15143182079717
        },
        "sites": [
            {
                "species": [
                    {
                        "element": "Na",
                        "occu": 1
                    }
                ],
                "abc": [
                    0.75,
                    0.25,
                    0.5
                ],
                "xyz": [
                    -1.0000000161269895e-08,
                    2.6603869600000003,
                    2.881451285
                ],
                "label": "Na",
                "properties": {}
            },
            {
                "species": [
                    {
                        "element": "La",
                        "occu": 1
                    }
                ],
                "abc": [
                    0.5,
                    0.5,
                    0.0
                ],
                "xyz": [
                    0.0,
                    0.0,
                    5.76290257
                ],
                "label": "La",
                "properties": {}
            },
            {
                "species": [
                    {
                        "element": "Mo",
                        "occu": 1
                    }
                ],
                "abc": [
                    0.25,
                    0.75,
                    0.5
                ],
                "xyz": [
                    2.6603869600000003,
                    9.999999717180685e-09,
                    2.881451285
                ],
                "label": "Mo",
                "properties": {}
            },
            {
                "species": [
                    {
                        "element": "Mo",
                        "occu": 1
                    }
                ],
                "abc": [
                    0.0,
                    0.0,
                    0.0
                ],
                "xyz": [
                    0.0,
                    0.0,
                    0.0
                ],
                "label": "Mo",
                "properties": {}
            },
            {
                "species": [
                    {
                        "element": "O",
                        "occu": 1
                    }
                ],
                "abc": [
                    0.19027672,
                    0.59978359,
                    0.11538228
                ],
                "xyz": [
                    1.39640825304673,
                    -0.782485218602455,
                    3.8881037530095366
                ],
                "label": "O",
                "properties": {}
            },
            {
                "species": [
                    {
                        "element": "O",
                        "occu": 1
                    }
                ],
                "abc": [
                    0.48440131,
                    0.07489444,
                    0.88461772
                ],
                "xyz": [
                    1.2639786969532705,
                    3.442872188602455,
                    -1.8747988169904626
                ],
                "label": "O",
                "properties": {}
            },
            {
                "species": [
                    {
                        "element": "O",
                        "occu": 1
                    }
                ],
                "abc": [
                    0.76522152,
                    0.67466994,
                    0.60755987
                ],
                "xyz": [
                    1.375442105946784,
                    1.8572466033767747,
                    4.796645859103187
                ],
                "label": "O",
                "properties": {}
            },
            {
                "species": [
                    {
                        "element": "O",
                        "occu": 1
                    }
                ],
                "abc": [
                    0.06711007,
                    0.15766165,
                    0.39244013
                ],
                "xyz": [
                    1.284944844053216,
                    0.803140366623225,
                    -0.9662567108968136
                ],
                "label": "O",
                "properties": {}
            },
            {
                "species": [
                    {
                        "element": "O",
                        "occu": 1
                    }
                ],
                "abc": [
                    0.40021641,
                    0.51559869,
                    0.59049313
                ],
                "xyz": [
                    1.8779017313975452,
                    1.26397871695327,
                    1.8747988169904626
                ],
                "label": "O",
                "properties": {}
            },
            {
                "species": [
                    {
                        "element": "O",
                        "occu": 1
                    }
                ],
                "abc": [
                    0.92510556,
                    0.80972328,
                    0.40950687
                ],
                "xyz": [
                    0.7824852186024551,
                    1.3964082530467297,
                    7.637701386990463
                ],
                "label": "O",
                "properties": {}
            },
            {
                "species": [
                    {
                        "element": "O",
                        "occu": 1
                    }
                ],
                "abc": [
                    0.32533006,
                    0.93288993,
                    0.09055158
                ],
                "xyz": [
                    1.8572466033767747,
                    -1.3754421059467836,
                    6.7291592808968135
                ],
                "label": "O",
                "properties": {}
            },
            {
                "species": [
                    {
                        "element": "O",
                        "occu": 1
                    }
                ],
                "abc": [
                    0.84233835,
                    0.23477848,
                    0.90944842
                ],
                "xyz": [
                    0.8031403466232252,
                    4.0358290759467845,
                    0.966256710896813
                ],
                "label": "O",
                "properties": {}
            }
        ]
    },
    "spacegroup": {
        "source": "spglib",
        "symbol": "I-4",
        "number": 82,
        "point_group": "-4",
        "crystal_system": "tetragonal",
        "hall": "I -4"
    },
    "dielectric": {
        "epsilon_ionic": [
            [
                10.05181403,
                0.00012986,
                0.00022538
            ],
            [
                0.00012986,
                10.05160987,
                9.643e-05
            ],
            [
                0.00022538,
                9.643e-05,
                7.14653493
            ]
        ],
        "epsilon_ionic_avg": 9.083319609999998,
        "epsilon_ionic_eig": [
            7.1465349093157196,
            10.051877149164282,
            10.051546771519995
        ],
        "epsilon_electronic": [
            [
                4.22188725,
                4.6e-06,
                0.0
            ],
            [
                -4.6e-06,
                4.22188725,
                0.0
            ],
            [
                0.0,
                0.0,
                4.23416645
            ]
        ],
        "epsilon_electronic_avg": 4.225980316666667,
        "epsilon_electronic_eig": [
            4.22188725,
            4.22188725,
            4.23416645
        ]
    },
    "phonon": {
        "lowest_freq": -0.043568361441797966,
        "frequency": [
            -0.043568361441797966,
            -0.043568361441797966,
            -0.040607197162176416,
            2.6236140164586295,
            3.4298009534225056,
            3.4298009534225056,
            3.6939191719979485,
            3.6939191719979485,
            4.1834935344808075,
            4.1834935344808075,
            4.502306946217611,
            4.595978292481994,
            4.595978292481994,
            4.680770604166442,
            5.755964085177998,
            6.616993038037405,
            7.13117287065181,
            7.407193157802759,
            7.407193157802759,
            8.70332206783525,
            8.70332206783525,
            9.218893967242957,
            9.294303810312648,
            10.837849544800951,
            11.089615386548383,
            11.089615386548383,
            11.796775204643886,
            12.130793592912012,
            22.473779262591044,
            22.91407829361557,
            22.91407829361557,
            23.14979333766662,
            23.14979333766662,
            24.261297650335724,
            25.57477389619892,
            25.912000749812645
        ]
    },
    "born_effective_charge": {
        "avg_abs_trace": 2.5714888888888887,
        "tensors": [
            [
                [
                    1.34718,
                    -0.08277,
                    -2e-05
                ],
                [
                    0.08279,
                    1.34723,
                    -0.0
                ],
                [
                    0.0,
                    -0.0,
                    1.21996
                ]
            ],
            [
                [
                    5.17453,
                    -0.3498,
                    0.00033
                ],
                [
                    0.34979,
                    5.17437,
                    0.0002
                ],
                [
                    0.0,
                    -0.0,
                    4.6687
                ]
            ],
            [
                [
                    4.1139,
                    0.61435,
                    -0.0001
                ],
                [
                    -0.61433,
                    4.11398,
                    -0.00013
                ],
                [
                    0.0,
                    -0.0,
                    5.63727
                ]
            ],
            [
                [
                    4.72108,
                    0.01971,
                    4e-05
                ],
                [
                    -0.01976,
                    4.72111,
                    1e-05
                ],
                [
                    0.0,
                    -0.0,
                    4.04749
                ]
            ],
            [
                [
                    -2.22544,
                    -0.50626,
                    1.2573
                ],
                [
                    -0.39425,
                    -1.26071,
                    0.58913
                ],
                [
                    1.45145,
                    0.54987,
                    -2.39969
                ]
            ],
            [
                [
                    -2.2255,
                    -0.50636,
                    -1.25751
                ],
                [
                    -0.39438,
                    -1.26026,
                    -0.58919
                ],
                [
                    -1.45145,
                    -0.54987,
                    -2.39969
                ]
            ],
            [
                [
                    -2.27386,
                    -1.16797,
                    -0.43971
                ],
                [
                    -1.17918,
                    -1.91858,
                    -0.62735
                ],
                [
                    -0.49531,
                    -0.41651,
                    -1.49358
                ]
            ],
            [
                [
                    -2.27383,
                    -1.16794,
                    0.43949
                ],
                [
                    -1.17921,
                    -1.9185,
                    0.6272
                ],
                [
                    0.49531,
                    0.41651,
                    -1.49358
                ]
            ],
            [
                [
                    -1.26071,
                    0.39437,
                    -0.58918
                ],
                [
                    0.5063,
                    -2.22551,
                    1.25738
                ],
                [
                    -0.54984,
                    1.45151,
                    -2.39979
                ]
            ],
            [
                [
                    -1.26025,
                    0.39409,
                    0.58904
                ],
                [
                    0.5063,
                    -2.2256,
                    -1.25735
                ],
                [
                    0.54984,
                    -1.45151,
                    -2.39979
                ]
            ],
            [
                [
                    -1.91857,
                    1.17925,
                    0.62758
                ],
                [
                    1.16789,
                    -2.27373,
                    -0.43945
                ],
                [
                    0.41644,
                    -0.49525,
                    -1.49365
                ]
            ],
            [
                [
                    -1.91852,
                    1.17933,
                    -0.62725
                ],
                [
                    1.16806,
                    -2.27381,
                    0.43953
                ],
                [
                    -0.41644,
                    0.49525,
                    -1.49365
                ]
            ]
        ]
    },
    "band_gap": 3.4375,
    "is_direct": false,
    "formula": "NaLa(MoO4)2"
}