{
    "mp_id": "mp-1219056",
    "nelements": 4,
    "nsites": 21,
    "elements": [
        "O",
        "Pb",
        "Sb",
        "Sn"
    ],
    "structure": {
        "@module": "pymatgen.core.structure",
        "@class": "Structure",
        "charge": null,
        "lattice": {
            "matrix": [
                [
                    -3.72954527,
                    3.75985948,
                    5.29683821
                ],
                [
                    3.72954527,
                    -3.75985948,
                    5.29683821
                ],
                [
                    3.72954527,
                    3.75985948,
                    -5.29683821
                ]
            ],
            "a": 7.490163299504307,
            "b": 7.490163299504307,
            "c": 7.490163299504307,
            "alpha": 120.27427169261733,
            "beta": 119.7387672283086,
            "gamma": 89.98933408051899,
            "volume": 297.1010565197947
        },
        "sites": [
            {
                "species": [
                    {
                        "element": "Sn",
                        "occu": 1
                    }
                ],
                "abc": [
                    0.25006218,
                    0.50050992,
                    0.25044774
                ],
                "xyz": [
                    1.8681123681983798,
                    -2.220446049250313e-16,
                    2.649077819799796
                ],
                "label": "Sn",
                "properties": {}
            },
            {
                "species": [
                    {
                        "element": "Sn",
                        "occu": 1
                    }
                ],
                "abc": [
                    0.25006218,
                    0.99961544,
                    0.74955226
                ],
                "xyz": [
                    5.59098190134689,
                    -3.7598594802012997e-06,
                    2.649083116638006
                ],
                "label": "Sn",
                "properties": {}
            },
            {
                "species": [
                    {
                        "element": "Sb",
                        "occu": 1
                    }
                ],
                "abc": [
                    0.25001027,
                    0.50066969,
                    0.74934058
                ],
                "xyz": [
                    3.72954527,
                    1.8749710869233973,
                    0.007094479161708911
                ],
                "label": "Sb",
                "properties": {}
            },
            {
                "species": [
                    {
                        "element": "Sb",
                        "occu": 1
                    }
                ],
                "abc": [
                    0.75132812,
                    0.50066969,
                    0.25065942
                ],
                "xyz": [
                    3.692249817000004e-06,
                    1.884884670815718,
                    5.303927445291881
                ],
                "label": "Sb",
                "properties": {}
            },
            {
                "species": [
                    {
                        "element": "Pb",
                        "occu": 1
                    }
                ],
                "abc": [
                    0.74817707,
                    0.00222179,
                    0.25404471
                ],
                "xyz": [
                    -1.8346027396065039,
                    3.759859442401405,
                    2.6291076274120715
                ],
                "label": "Pb",
                "properties": {}
            },
            {
                "species": [
                    {
                        "element": "Pb",
                        "occu": 1
                    }
                ],
                "abc": [
                    0.74817707,
                    0.49413236,
                    0.74595529
                ],
                "xyz": [
                    1.8346027769019568,
                    3.75985948,
                    2.629107574443689
                ],
                "label": "Pb",
                "properties": {}
            },
            {
                "species": [
                    {
                        "element": "Pb",
                        "occu": 1
                    }
                ],
                "abc": [
                    0.7496689,
                    0.00058645,
                    0.74908245
                ],
                "xyz": [
                    0.0,
                    5.632889501868251,
                    0.006212661536509234
                ],
                "label": "Pb",
                "properties": {}
            },
            {
                "species": [
                    {
                        "element": "Pb",
                        "occu": 1
                    }
                ],
                "abc": [
                    0.251504,
                    0.00058645,
                    0.25091755
                ],
                "xyz": [
                    0.0,
                    1.8868294581317477,
                    0.006212661536509012
                ],
                "label": "Pb",
                "properties": {}
            },
            {
                "species": [
                    {
                        "element": "O",
                        "occu": 1
                    }
                ],
                "abc": [
                    0.16832942,
                    0.16832942,
                    0.0
                ],
                "xyz": [
                    0.0,
                    0.0,
                    1.7832274074462764
                ],
                "label": "O",
                "properties": {}
            },
            {
                "species": [
                    {
                        "element": "O",
                        "occu": 1
                    }
                ],
                "abc": [
                    0.56995925,
                    0.56995925,
                    0.0
                ],
                "xyz": [
                    0.0,
                    0.0,
                    6.037963867085885
                ],
                "label": "O",
                "properties": {}
            },
            {
                "species": [
                    {
                        "element": "O",
                        "occu": 1
                    }
                ],
                "abc": [
                    0.16968148,
                    0.57231006,
                    0.98920102
                ],
                "xyz": [
                    5.190891501325992,
                    2.205429949240731,
                    -1.309428619538231
                ],
                "label": "O",
                "properties": {}
            },
            {
                "species": [
                    {
                        "element": "O",
                        "occu": 1
                    }
                ],
                "abc": [
                    0.58311004,
                    0.18048046,
                    0.01079898
                ],
                "xyz": [
                    -1.4613499608712621,
                    1.5544332906187488,
                    3.9874148872999786
                ],
                "label": "O",
                "properties": {}
            },
            {
                "species": [
                    {
                        "element": "O",
                        "occu": 1
                    }
                ],
                "abc": [
                    0.16968148,
                    0.18048046,
                    0.59737142
                ],
                "xyz": [
                    2.268199038674008,
                    2.205429949240731,
                    -1.3094286195382308
                ],
                "label": "O",
                "properties": {}
            },
            {
                "species": [
                    {
                        "element": "O",
                        "occu": 1
                    }
                ],
                "abc": [
                    0.58311004,
                    0.57231006,
                    0.40262858
                ],
                "xyz": [
                    1.4613425017807218,
                    1.5544332906187488,
                    3.9874148872999786
                ],
                "label": "O",
                "properties": {}
            },
            {
                "species": [
                    {
                        "element": "O",
                        "occu": 1
                    }
                ],
                "abc": [
                    0.329675,
                    0.829675,
                    0.5
                ],
                "xyz": [
                    3.72954527,
                    -4.440892098500626e-16,
                    3.4924702737635003
                ],
                "label": "O",
                "properties": {}
            },
            {
                "species": [
                    {
                        "element": "O",
                        "occu": 1
                    }
                ],
                "abc": [
                    0.93267593,
                    0.43267593,
                    0.5
                ],
                "xyz": [
                    -4.440892098500626e-16,
                    3.7598594800000003,
                    4.58362879714257
                ],
                "label": "O",
                "properties": {}
            },
            {
                "species": [
                    {
                        "element": "O",
                        "occu": 1
                    }
                ],
                "abc": [
                    0.32915046,
                    0.4309646,
                    0.51088337
                ],
                "xyz": [
                    2.2850831003612777,
                    1.5380428223918001,
                    1.3201399387348753
                ],
                "label": "O",
                "properties": {}
            },
            {
                "species": [
                    {
                        "element": "O",
                        "occu": 1
                    }
                ],
                "abc": [
                    0.92008223,
                    0.81826709,
                    0.48911663
                ],
                "xyz": [
                    1.4444584400934521,
                    2.221820417467679,
                    6.616983445573084
                ],
                "label": "O",
                "properties": {}
            },
            {
                "species": [
                    {
                        "element": "O",
                        "occu": 1
                    }
                ],
                "abc": [
                    0.32915046,
                    0.81826709,
                    0.89818586
                ],
                "xyz": [
                    5.174007439638722,
                    1.5380428223918001,
                    1.320139938734874
                ],
                "label": "O",
                "properties": {}
            },
            {
                "species": [
                    {
                        "element": "O",
                        "occu": 1
                    }
                ],
                "abc": [
                    0.92008223,
                    0.4309646,
                    0.10181414
                ],
                "xyz": [
                    -1.4444658991839925,
                    2.221820417467679,
                    6.616983445573084
                ],
                "label": "O",
                "properties": {}
            },
            {
                "species": [
                    {
                        "element": "O",
                        "occu": 1
                    }
                ],
                "abc": [
                    0.87132618,
                    0.87132618,
                    0.0
                ],
                "xyz": [
                    0.0,
                    0.0,
                    9.230547607194675
                ],
                "label": "O",
                "properties": {}
            }
        ]
    },
    "spacegroup": {
        "source": "spglib",
        "symbol": "Imm2",
        "number": 44,
        "point_group": "mm2",
        "crystal_system": "orthorhombic",
        "hall": "I 2 -2"
    },
    "dielectric": {
        "epsilon_ionic": [
            [
                23.50945795,
                0.0,
                0.00014881
            ],
            [
                0.0,
                25.05329861,
                0.00016483
            ],
            [
                0.00014881,
                0.00016483,
                23.46268362
            ]
        ],
        "epsilon_ionic_avg": 24.008480059999997,
        "epsilon_ionic_eig": [
            23.50945842342599,
            23.462683129493236,
            25.053298627080768
        ],
        "epsilon_electronic": [
            [
                5.55914723,
                0.0,
                0.0
            ],
            [
                0.0,
                5.49070794,
                0.0
            ],
            [
                0.0,
                0.0,
                5.50963906
            ]
        ],
        "epsilon_electronic_avg": 5.519831409999999,
        "epsilon_electronic_eig": [
            5.55914723,
            5.49070794,
            5.50963906
        ]
    },
    "phonon": {
        "lowest_freq": -0.014885970821107928,
        "frequency": [
            -0.014885970821107928,
            -0.013614842119745684,
            -0.0109984134050286,
            0.8682197375836168,
            0.9818929157115037,
            0.9887719526939269,
            1.7683277839748017,
            1.7918702870822585,
            1.7970899458852299,
            2.0398502284925977,
            2.0437163797970936,
            2.5730064765599563,
            2.573122922268137,
            2.5734924133644332,
            3.907617034594437,
            4.123883647969952,
            4.190060776033391,
            4.225310143831601,
            4.944920501898345,
            4.969292936830156,
            5.499482902011039,
            5.540084601063365,
            5.941737267536109,
            6.123956111427984,
            6.2500609735741826,
            6.331430778955583,
            6.550637263227749,
            6.736472750555677,
            7.165845728766911,
            7.804121011757224,
            8.291235755336416,
            8.483205983175756,
            8.865418642718206,
            9.39072142201877,
            9.428326336763764,
            9.495562648643633,
            10.156962144515662,
            10.2081951449501,
            10.399963239902146,
            10.608553769867918,
            10.744400280723355,
            10.757204527778287,
            10.804211250816413,
            11.091764100845275,
            11.156319853837179,
            11.403267155656527,
            12.860975109996883,
            12.904124272905362,
            12.969630693307952,
            13.363384956112661,
            14.241070189883319,
            15.874049462128905,
            16.6256438108488,
            17.02059527769271,
            18.24486048725655,
            18.749768215521836,
            18.797083296913428,
            20.174790343972074,
            20.543227373282562,
            20.747081719331945,
            21.8128888052182,
            22.20260643016854,
            22.501631765391583
        ]
    },
    "born_effective_charge": {
        "avg_abs_trace": 3.029330158730158,
        "tensors": [
            [
                [
                    3.98821,
                    -0.0,
                    0.21723
                ],
                [
                    6e-05,
                    4.58211,
                    -5e-05
                ],
                [
                    0.40644,
                    0.0,
                    4.41516
                ]
            ],
            [
                [
                    3.98829,
                    -0.0,
                    -0.21726
                ],
                [
                    -6e-05,
                    4.58211,
                    -5e-05
                ],
                [
                    -0.40644,
                    0.0,
                    4.41516
                ]
            ],
            [
                [
                    5.2376,
                    3e-05,
                    -4e-05
                ],
                [
                    -0.0,
                    4.76691,
                    0.65422
                ],
                [
                    -0.0,
                    0.39589,
                    4.82536
                ]
            ],
            [
                [
                    5.2376,
                    -3e-05,
                    -4e-05
                ],
                [
                    -0.0,
                    4.76696,
                    -0.65408
                ],
                [
                    -0.0,
                    -0.39589,
                    4.82536
                ]
            ],
            [
                [
                    2.98956,
                    0.0,
                    0.37114
                ],
                [
                    7e-05,
                    3.61138,
                    -5e-05
                ],
                [
                    0.38784,
                    -0.0,
                    3.38855
                ]
            ],
            [
                [
                    2.98941,
                    0.0,
                    -0.37129
                ],
                [
                    -7e-05,
                    3.61138,
                    -5e-05
                ],
                [
                    -0.38784,
                    -0.0,
                    3.38855
                ]
            ],
            [
                [
                    3.62295,
                    -6e-05,
                    0.00013
                ],
                [
                    -0.0,
                    3.04563,
                    0.51129
                ],
                [
                    -0.0,
                    0.47277,
                    3.2385
                ]
            ],
            [
                [
                    3.62295,
                    6e-05,
                    0.00013
                ],
                [
                    -0.0,
                    3.04569,
                    -0.51113
                ],
                [
                    -0.0,
                    -0.47277,
                    3.2385
                ]
            ],
            [
                [
                    -2.52825,
                    -0.0,
                    -5e-05
                ],
                [
                    -0.0,
                    -2.23178,
                    3e-05
                ],
                [
                    -0.0,
                    -0.0,
                    -2.44066
                ]
            ],
            [
                [
                    -1.9293,
                    -0.0,
                    -3e-05
                ],
                [
                    -0.0,
                    -3.11124,
                    2e-05
                ],
                [
                    -0.0,
                    0.0,
                    -2.29745
                ]
            ],
            [
                [
                    -2.47302,
                    -0.00802,
                    0.33211
                ],
                [
                    -0.02994,
                    -2.3315,
                    0.15731
                ],
                [
                    0.30836,
                    0.18416,
                    -2.43156
                ]
            ],
            [
                [
                    -2.473,
                    -0.00799,
                    -0.3321
                ],
                [
                    -0.02994,
                    -2.33148,
                    -0.15732
                ],
                [
                    -0.30836,
                    -0.18416,
                    -2.43156
                ]
            ],
            [
                [
                    -2.473,
                    0.00799,
                    -0.3321
                ],
                [
                    0.02994,
                    -2.3315,
                    0.15731
                ],
                [
                    -0.30836,
                    0.18416,
                    -2.43156
                ]
            ],
            [
                [
                    -2.47302,
                    0.00802,
                    0.33211
                ],
                [
                    0.02994,
                    -2.33148,
                    -0.15732
                ],
                [
                    0.30836,
                    -0.18416,
                    -2.43156
                ]
            ],
            [
                [
                    -2.54263,
                    0.0,
                    0.0
                ],
                [
                    -0.0,
                    -2.13246,
                    -3e-05
                ],
                [
                    -0.0,
                    0.0,
                    -2.44891
                ]
            ],
            [
                [
                    -1.8584,
                    -0.0,
                    1e-05
                ],
                [
                    -0.0,
                    -3.13528,
                    2e-05
                ],
                [
                    -0.0,
                    0.0,
                    -2.34399
                ]
            ],
            [
                [
                    -2.46762,
                    0.02839,
                    0.38208
                ],
                [
                    -0.001,
                    -2.32662,
                    0.18423
                ],
                [
                    0.34324,
                    0.22293,
                    -2.3943
                ]
            ],
            [
                [
                    -2.46764,
                    0.02848,
                    -0.38204
                ],
                [
                    -0.00113,
                    -2.32649,
                    -0.18431
                ],
                [
                    -0.34324,
                    -0.22293,
                    -2.3943
                ]
            ],
            [
                [
                    -2.46764,
                    -0.02848,
                    -0.38204
                ],
                [
                    0.001,
                    -2.32662,
                    0.18423
                ],
                [
                    -0.34324,
                    0.22293,
                    -2.3943
                ]
            ],
            [
                [
                    -2.46762,
                    -0.02839,
                    0.38208
                ],
                [
                    0.00113,
                    -2.32649,
                    -0.18431
                ],
                [
                    0.34324,
                    -0.22293,
                    -2.3943
                ]
            ],
            [
                [
                    -3.05543,
                    -0.0,
                    -1e-05
                ],
                [
                    -0.0,
                    -2.76924,
                    3e-05
                ],
                [
                    -0.0,
                    0.0,
                    -2.90072
                ]
            ]
        ]
    },
    "band_gap": 1.2268999999999997,
    "is_direct": false,
    "formula": "Sn2Sb2Pb4O13"
}