{
    "mp_id": "mp-1285",
    "nelements": 2,
    "nsites": 6,
    "elements": [
        "O",
        "Pt"
    ],
    "structure": {
        "@module": "pymatgen.core.structure",
        "@class": "Structure",
        "charge": null,
        "lattice": {
            "matrix": [
                [
                    4.46213023,
                    0.0,
                    0.0
                ],
                [
                    0.0,
                    4.51073919,
                    0.0
                ],
                [
                    0.0,
                    0.0,
                    3.11912261
                ]
            ],
            "a": 4.46213023,
            "b": 4.51073919,
            "c": 3.11912261,
            "alpha": 90.0,
            "beta": 90.0,
            "gamma": 90.0,
            "volume": 62.78015810972994
        },
        "sites": [
            {
                "species": [
                    {
                        "element": "Pt",
                        "occu": 1
                    }
                ],
                "abc": [
                    0.0,
                    0.0,
                    0.0
                ],
                "xyz": [
                    0.0,
                    0.0,
                    0.0
                ],
                "label": "Pt",
                "properties": {}
            },
            {
                "species": [
                    {
                        "element": "Pt",
                        "occu": 1
                    }
                ],
                "abc": [
                    0.5,
                    0.5,
                    0.5
                ],
                "xyz": [
                    2.231065115,
                    2.255369595,
                    1.559561305
                ],
                "label": "Pt",
                "properties": {}
            },
            {
                "species": [
                    {
                        "element": "O",
                        "occu": 1
                    }
                ],
                "abc": [
                    0.36085414,
                    0.25970811,
                    0.0
                ],
                "xyz": [
                    1.610178166714652,
                    1.1714755497378309,
                    0.0
                ],
                "label": "O",
                "properties": {}
            },
            {
                "species": [
                    {
                        "element": "O",
                        "occu": 1
                    }
                ],
                "abc": [
                    0.63914586,
                    0.74029189,
                    0.0
                ],
                "xyz": [
                    2.8519520632853474,
                    3.339263640262169,
                    0.0
                ],
                "label": "O",
                "properties": {}
            },
            {
                "species": [
                    {
                        "element": "O",
                        "occu": 1
                    }
                ],
                "abc": [
                    0.13914586,
                    0.75970811,
                    0.5
                ],
                "xyz": [
                    0.6208869482853479,
                    3.4268451447378308,
                    1.559561305
                ],
                "label": "O",
                "properties": {}
            },
            {
                "species": [
                    {
                        "element": "O",
                        "occu": 1
                    }
                ],
                "abc": [
                    0.86085414,
                    0.24029189,
                    0.5
                ],
                "xyz": [
                    3.841243281714652,
                    1.083894045262169,
                    1.559561305
                ],
                "label": "O",
                "properties": {}
            }
        ]
    },
    "spacegroup": {
        "source": "spglib",
        "symbol": "Pnnm",
        "number": 58,
        "point_group": "mmm",
        "crystal_system": "orthorhombic",
        "hall": "-P 2 2n"
    },
    "dielectric": {
        "epsilon_ionic": [
            [
                1.2884074,
                -3.8e-07,
                4.4e-07
            ],
            [
                -3.8e-07,
                1.34669733,
                -3.6e-07
            ],
            [
                4.4e-07,
                -3.6e-07,
                1.07465491
            ]
        ],
        "epsilon_ionic_avg": 1.2365865466666668,
        "epsilon_ionic_eig": [
            1.2884073999984293,
            1.074654909998618,
            1.346697330002953
        ],
        "epsilon_electronic": [
            [
                12.32933784,
                -0.0,
                0.0
            ],
            [
                0.0,
                12.06187715,
                0.0
            ],
            [
                0.0,
                0.0,
                13.01164504
            ]
        ],
        "epsilon_electronic_avg": 12.46762001,
        "epsilon_electronic_eig": [
            12.32933784,
            12.06187715,
            13.01164504
        ]
    },
    "phonon": {
        "lowest_freq": -0.010519601718409217,
        "frequency": [
            -0.010519601718409217,
            -0.008212901589265582,
            -0.006726876677382005,
            5.418326787399477,
            6.578162956017073,
            6.638592372378063,
            7.968319502102687,
            10.949624361104371,
            11.623056418960259,
            11.640735948998287,
            17.40200927051578,
            17.943700548183894,
            20.1986249381656,
            20.42235181402106,
            20.93945712574726,
            21.197148177712187,
            21.507865545405306,
            21.626731129607464
        ]
    },
    "born_effective_charge": {
        "avg_abs_trace": 1.6517266666666668,
        "tensors": [
            [
                [
                    2.31661,
                    0.83175,
                    0.0
                ],
                [
                    1.56624,
                    2.16034,
                    0.0
                ],
                [
                    0.0,
                    0.0,
                    2.95582
                ]
            ],
            [
                [
                    2.31661,
                    -0.83175,
                    0.0
                ],
                [
                    -1.56624,
                    2.16034,
                    0.0
                ],
                [
                    0.0,
                    0.0,
                    2.95582
                ]
            ],
            [
                [
                    -1.15775,
                    -0.93358,
                    0.0
                ],
                [
                    -0.87685,
                    -1.08003,
                    0.0
                ],
                [
                    -0.00075,
                    -0.00166,
                    -1.47791
                ]
            ],
            [
                [
                    -1.15886,
                    -0.93346,
                    0.0
                ],
                [
                    -0.87633,
                    -1.08031,
                    0.0
                ],
                [
                    0.00075,
                    0.00166,
                    -1.47791
                ]
            ],
            [
                [
                    -1.15886,
                    0.93346,
                    0.0
                ],
                [
                    0.87685,
                    -1.08003,
                    0.0
                ],
                [
                    0.00075,
                    -0.00166,
                    -1.47791
                ]
            ],
            [
                [
                    -1.15775,
                    0.93358,
                    0.0
                ],
                [
                    0.87633,
                    -1.08031,
                    0.0
                ],
                [
                    -0.00075,
                    0.00166,
                    -1.47791
                ]
            ]
        ]
    },
    "band_gap": 0.9521000000000006,
    "is_direct": false,
    "formula": "PtO2"
}