{
    "mp_id": "mp-1189528",
    "nelements": 4,
    "nsites": 20,
    "elements": [
        "Ca",
        "O",
        "Sb",
        "Sc"
    ],
    "structure": {
        "@module": "pymatgen.core.structure",
        "@class": "Structure",
        "charge": null,
        "lattice": {
            "matrix": [
                [
                    5.46993606,
                    0.0,
                    -2.579e-05
                ],
                [
                    0.0,
                    5.63312862,
                    0.0
                ],
                [
                    -5.46756589,
                    0.0,
                    7.83049179
                ]
            ],
            "a": 5.469936060060799,
            "b": 5.63312862,
            "c": 9.55043865143109,
            "alpha": 90.0,
            "beta": 124.92457237471456,
            "gamma": 90.0,
            "volume": 241.27900101449626
        },
        "sites": [
            {
                "species": [
                    {
                        "element": "Ca",
                        "occu": 1
                    }
                ],
                "abc": [
                    0.73635882,
                    0.55159541,
                    0.24979325
                ],
                "xyz": [
                    2.662074609364806,
                    3.107207890731634,
                    1.9559850026284495
                ],
                "label": "Ca",
                "properties": {}
            },
            {
                "species": [
                    {
                        "element": "Ca",
                        "occu": 1
                    }
                ],
                "abc": [
                    0.73635882,
                    0.94840459,
                    0.74979325
                ],
                "xyz": [
                    -0.07170833563519352,
                    5.342485039268365,
                    5.8712308976284495
                ],
                "label": "Ca",
                "properties": {}
            },
            {
                "species": [
                    {
                        "element": "Ca",
                        "occu": 1
                    }
                ],
                "abc": [
                    0.26364118,
                    0.44840459,
                    0.75020675
                ],
                "xyz": [
                    -2.6597044393648073,
                    2.525920729268366,
                    5.874480997371551
                ],
                "label": "Ca",
                "properties": {}
            },
            {
                "species": [
                    {
                        "element": "Ca",
                        "occu": 1
                    }
                ],
                "abc": [
                    0.26364118,
                    0.05159541,
                    0.25020675
                ],
                "xyz": [
                    0.07407850563519314,
                    0.2906435807316342,
                    1.9592351023715502
                ],
                "label": "Ca",
                "properties": {}
            },
            {
                "species": [
                    {
                        "element": "Sc",
                        "occu": 1
                    }
                ],
                "abc": [
                    0.5,
                    0.5,
                    0.5
                ],
                "xyz": [
                    0.0011850849999999191,
                    2.81656431,
                    3.915233
                ],
                "label": "Sc",
                "properties": {}
            },
            {
                "species": [
                    {
                        "element": "Sc",
                        "occu": 1
                    }
                ],
                "abc": [
                    0.5,
                    0.0,
                    0.0
                ],
                "xyz": [
                    2.73496803,
                    0.0,
                    -1.2895e-05
                ],
                "label": "Sc",
                "properties": {}
            },
            {
                "species": [
                    {
                        "element": "Sb",
                        "occu": 1
                    }
                ],
                "abc": [
                    0.0,
                    0.0,
                    0.5
                ],
                "xyz": [
                    -2.733782945,
                    0.0,
                    3.915245895
                ],
                "label": "Sb",
                "properties": {}
            },
            {
                "species": [
                    {
                        "element": "Sb",
                        "occu": 1
                    }
                ],
                "abc": [
                    0.0,
                    0.5,
                    0.0
                ],
                "xyz": [
                    0.0,
                    2.81656431,
                    0.0
                ],
                "label": "Sb",
                "properties": {}
            },
            {
                "species": [
                    {
                        "element": "O",
                        "occu": 1
                    }
                ],
                "abc": [
                    0.65574705,
                    0.802132,
                    0.44914877
                ],
                "xyz": [
                    1.1311439406461674,
                    4.51851272621784,
                    3.5170388442571783
                ],
                "label": "O",
                "properties": {}
            },
            {
                "species": [
                    {
                        "element": "O",
                        "occu": 1
                    }
                ],
                "abc": [
                    0.65574705,
                    0.697868,
                    0.94914877
                ],
                "xyz": [
                    -1.6026390043538323,
                    3.9311802037821604,
                    7.432284739257179
                ],
                "label": "O",
                "properties": {}
            },
            {
                "species": [
                    {
                        "element": "O",
                        "occu": 1
                    }
                ],
                "abc": [
                    0.34425295,
                    0.197868,
                    0.55085123
                ],
                "xyz": [
                    -1.1287737706461678,
                    1.11461589378216,
                    4.313427155742821
                ],
                "label": "O",
                "properties": {}
            },
            {
                "species": [
                    {
                        "element": "O",
                        "occu": 1
                    }
                ],
                "abc": [
                    0.34425295,
                    0.302132,
                    0.05085123
                ],
                "xyz": [
                    1.6050091743538324,
                    1.70194841621784,
                    0.3981812607428212
                ],
                "label": "O",
                "properties": {}
            },
            {
                "species": [
                    {
                        "element": "O",
                        "occu": 1
                    }
                ],
                "abc": [
                    0.24728302,
                    0.79133366,
                    0.05326942
                ],
                "xyz": [
                    1.0613682443516175,
                    4.45768428811535,
                    0.41711937853897596
                ],
                "label": "O",
                "properties": {}
            },
            {
                "species": [
                    {
                        "element": "O",
                        "occu": 1
                    }
                ],
                "abc": [
                    0.24728302,
                    0.70866634,
                    0.55326942
                ],
                "xyz": [
                    -1.672414700648383,
                    3.9920086418846505,
                    4.332365273538976
                ],
                "label": "O",
                "properties": {}
            },
            {
                "species": [
                    {
                        "element": "O",
                        "occu": 1
                    }
                ],
                "abc": [
                    0.75271698,
                    0.20866634,
                    0.94673058
                ],
                "xyz": [
                    -1.0589980743516172,
                    1.1754443318846508,
                    7.413346621461024
                ],
                "label": "O",
                "properties": {}
            },
            {
                "species": [
                    {
                        "element": "O",
                        "occu": 1
                    }
                ],
                "abc": [
                    0.75271698,
                    0.29133366,
                    0.44673058
                ],
                "xyz": [
                    1.674784870648383,
                    1.6411199781153492,
                    3.4981007264610238
                ],
                "label": "O",
                "properties": {}
            },
            {
                "species": [
                    {
                        "element": "O",
                        "occu": 1
                    }
                ],
                "abc": [
                    0.85506117,
                    0.9652382,
                    0.25601563
                ],
                "xyz": [
                    3.27734760139393,
                    5.437310929537285,
                    2.0047062367991035
                ],
                "label": "O",
                "properties": {}
            },
            {
                "species": [
                    {
                        "element": "O",
                        "occu": 1
                    }
                ],
                "abc": [
                    0.85506117,
                    0.5347618,
                    0.75601563
                ],
                "xyz": [
                    0.5435646563939294,
                    3.0123820004627158,
                    5.9199521317991035
                ],
                "label": "O",
                "properties": {}
            },
            {
                "species": [
                    {
                        "element": "O",
                        "occu": 1
                    }
                ],
                "abc": [
                    0.14493883,
                    0.0347618,
                    0.74398437
                ],
                "xyz": [
                    -3.2749774313939293,
                    0.19581769046271602,
                    5.825759763200896
                ],
                "label": "O",
                "properties": {}
            },
            {
                "species": [
                    {
                        "element": "O",
                        "occu": 1
                    }
                ],
                "abc": [
                    0.14493883,
                    0.4652382,
                    0.24398437
                ],
                "xyz": [
                    -0.5411944863939296,
                    2.6207466195372837,
                    1.9105138682008964
                ],
                "label": "O",
                "properties": {}
            }
        ]
    },
    "spacegroup": {
        "source": "spglib",
        "symbol": "P2_1/c",
        "number": 14,
        "point_group": "2/m",
        "crystal_system": "monoclinic",
        "hall": "-P 2ybc"
    },
    "dielectric": {
        "epsilon_ionic": [
            [
                12.76757251,
                -0.0,
                -0.01223393
            ],
            [
                -0.0,
                12.8177496,
                -0.0
            ],
            [
                -0.01223393,
                -0.0,
                18.14806458
            ]
        ],
        "epsilon_ionic_avg": 14.577795563333332,
        "epsilon_ionic_eig": [
            12.767544693163265,
            18.148092396836734,
            12.8177496
        ],
        "epsilon_electronic": [
            [
                4.25761421,
                0.0,
                -0.00065119
            ],
            [
                0.0,
                4.28897276,
                0.0
            ],
            [
                -0.00065506,
                0.0,
                4.21594025
            ]
        ],
        "epsilon_electronic_avg": 4.25417574,
        "epsilon_electronic_eig": [
            4.257624443339959,
            4.215930016660041,
            4.28897276
        ]
    },
    "phonon": {
        "lowest_freq": -0.04974864060958935,
        "frequency": [
            -0.04974864060958935,
            -0.021446458099575166,
            -0.012836737874749714,
            3.3123695513556437,
            3.603315053869635,
            4.610696340587991,
            4.672441318665855,
            4.974146656822931,
            5.0813002559761316,
            5.143458995068084,
            5.196516427892489,
            5.268835625443367,
            5.3474196358391985,
            5.414413584226424,
            5.662375315856154,
            5.966645699949916,
            6.335821269434029,
            6.555191825178437,
            6.684987689397772,
            7.061078805861235,
            7.2136765763606885,
            7.3021354501555535,
            7.630931369280848,
            7.919744525663954,
            8.04465160220559,
            8.08536017960633,
            8.219590756678164,
            8.839595653512875,
            9.20708526007356,
            9.223545701811249,
            9.30285339266891,
            9.38612996404813,
            9.389309395418948,
            9.622098159109468,
            10.189151009976179,
            10.644831978232132,
            11.09141478433807,
            11.356048790833492,
            11.370588588489221,
            11.494060085260841,
            11.690556518051476,
            12.651174500074546,
            12.708206873995632,
            12.841241025586797,
            13.015645214378303,
            13.135115904848197,
            13.707639621343017,
            15.081381269440605,
            16.74259847358753,
            16.841707268018766,
            16.912407263807896,
            17.88103582513334,
            17.910950884848866,
            18.20136335165517,
            18.37656068487765,
            18.482318145978002,
            18.727636211806505,
            21.155105801919234,
            21.910285471959636,
            22.328862840913548
        ]
    },
    "born_effective_charge": {
        "avg_abs_trace": 2.827766333333334,
        "tensors": [
            [
                [
                    2.45812,
                    0.10829,
                    0.01399
                ],
                [
                    0.16293,
                    2.41933,
                    0.00526
                ],
                [
                    0.00082,
                    0.01163,
                    2.34708
                ]
            ],
            [
                [
                    2.45812,
                    -0.10829,
                    0.01399
                ],
                [
                    -0.16271,
                    2.41935,
                    -0.00514
                ],
                [
                    0.00082,
                    -0.01163,
                    2.34708
                ]
            ],
            [
                [
                    2.45807,
                    0.10828,
                    0.01402
                ],
                [
                    0.16271,
                    2.41935,
                    0.00514
                ],
                [
                    0.00079,
                    0.01166,
                    2.3471
                ]
            ],
            [
                [
                    2.45807,
                    -0.10828,
                    0.01402
                ],
                [
                    -0.16293,
                    2.41933,
                    -0.00526
                ],
                [
                    0.00079,
                    -0.01166,
                    2.3471
                ]
            ],
            [
                [
                    4.28246,
                    0.34872,
                    -0.51347
                ],
                [
                    -0.23044,
                    4.39401,
                    0.08825
                ],
                [
                    0.37595,
                    0.22733,
                    4.28315
                ]
            ],
            [
                [
                    4.28246,
                    -0.34872,
                    -0.51347
                ],
                [
                    0.23044,
                    4.39401,
                    -0.08825
                ],
                [
                    0.37595,
                    -0.22733,
                    4.28315
                ]
            ],
            [
                [
                    4.94884,
                    -0.29377,
                    0.44823
                ],
                [
                    0.2089,
                    5.07528,
                    0.036
                ],
                [
                    -0.33469,
                    0.14592,
                    4.98371
                ]
            ],
            [
                [
                    4.94884,
                    0.29377,
                    0.44823
                ],
                [
                    -0.2089,
                    5.07528,
                    -0.036
                ],
                [
                    -0.33469,
                    -0.14592,
                    4.98371
                ]
            ],
            [
                [
                    -2.50902,
                    -0.74065,
                    0.04624
                ],
                [
                    -0.73478,
                    -2.73805,
                    0.14093
                ],
                [
                    0.03636,
                    0.09283,
                    -1.83933
                ]
            ],
            [
                [
                    -2.50902,
                    0.74065,
                    0.04624
                ],
                [
                    0.73537,
                    -2.73776,
                    -0.14082
                ],
                [
                    0.03636,
                    -0.09283,
                    -1.83933
                ]
            ],
            [
                [
                    -2.50902,
                    -0.74066,
                    0.04623
                ],
                [
                    -0.73537,
                    -2.73776,
                    0.14082
                ],
                [
                    0.03636,
                    0.09281,
                    -1.8393
                ]
            ],
            [
                [
                    -2.50902,
                    0.74066,
                    0.04623
                ],
                [
                    0.73478,
                    -2.73805,
                    -0.14093
                ],
                [
                    0.03636,
                    -0.09281,
                    -1.8393
                ]
            ],
            [
                [
                    -2.57572,
                    -0.71737,
                    0.0075
                ],
                [
                    -0.7587,
                    -2.64381,
                    -0.04328
                ],
                [
                    0.01848,
                    -0.07662,
                    -1.82992
                ]
            ],
            [
                [
                    -2.57572,
                    0.71737,
                    0.0075
                ],
                [
                    0.75894,
                    -2.64403,
                    0.04328
                ],
                [
                    0.01848,
                    0.07662,
                    -1.82992
                ]
            ],
            [
                [
                    -2.5757,
                    -0.71738,
                    0.0075
                ],
                [
                    -0.75894,
                    -2.64403,
                    -0.04328
                ],
                [
                    0.01848,
                    -0.07666,
                    -1.8299
                ]
            ],
            [
                [
                    -2.5757,
                    0.71738,
                    0.0075
                ],
                [
                    0.7587,
                    -2.64381,
                    0.04328
                ],
                [
                    0.01848,
                    0.07666,
                    -1.8299
                ]
            ],
            [
                [
                    -1.98903,
                    -0.06795,
                    -0.03512
                ],
                [
                    -0.16345,
                    -1.77212,
                    0.00992
                ],
                [
                    -0.07626,
                    0.04252,
                    -3.31129
                ]
            ],
            [
                [
                    -1.98903,
                    0.06795,
                    -0.03512
                ],
                [
                    0.16336,
                    -1.77218,
                    -0.00988
                ],
                [
                    -0.07626,
                    -0.04252,
                    -3.31129
                ]
            ],
            [
                [
                    -1.989,
                    -0.06795,
                    -0.03512
                ],
                [
                    -0.16336,
                    -1.77218,
                    0.00988
                ],
                [
                    -0.07628,
                    0.04247,
                    -3.31131
                ]
            ],
            [
                [
                    -1.989,
                    0.06795,
                    -0.03512
                ],
                [
                    0.16345,
                    -1.77212,
                    -0.00992
                ],
                [
                    -0.07628,
                    -0.04247,
                    -3.31131
                ]
            ]
        ]
    },
    "band_gap": 3.7528999999999995,
    "is_direct": false,
    "formula": "Ca2ScSbO6"
}