{
    "mp_id": "mp-17464",
    "nelements": 3,
    "nsites": 30,
    "elements": [
        "Ge",
        "O",
        "Sr"
    ],
    "structure": {
        "@module": "pymatgen.core.structure",
        "@class": "Structure",
        "charge": null,
        "lattice": {
            "matrix": [
                [
                    6.27568268,
                    -3.63129911,
                    -0.00033161
                ],
                [
                    6.27568268,
                    3.63129911,
                    -0.00033161
                ],
                [
                    -4.10444112,
                    0.0,
                    10.54420303
                ]
            ],
            "a": 7.250553526200877,
            "b": 7.250553526200877,
            "c": 11.314886408860145,
            "alpha": 108.30145648859047,
            "beta": 108.30145648859047,
            "gamma": 60.1099352480193,
            "volume": 480.57128978435696
        },
        "sites": [
            {
                "species": [
                    {
                        "element": "Sr",
                        "occu": 1
                    }
                ],
                "abc": [
                    0.5,
                    0.0,
                    0.5
                ],
                "xyz": [
                    1.0856207800000002,
                    -1.815649555,
                    5.27193571
                ],
                "label": "Sr",
                "properties": {}
            },
            {
                "species": [
                    {
                        "element": "Sr",
                        "occu": 1
                    }
                ],
                "abc": [
                    0.0,
                    0.5,
                    0.0
                ],
                "xyz": [
                    3.13784134,
                    1.815649555,
                    -0.000165805
                ],
                "label": "Sr",
                "properties": {}
            },
            {
                "species": [
                    {
                        "element": "Sr",
                        "occu": 1
                    }
                ],
                "abc": [
                    0.330317,
                    0.84028441,
                    0.99940979
                ],
                "xyz": [
                    3.2443043561140144,
                    1.8518442020620052,
                    10.537591552796094
                ],
                "label": "Sr",
                "properties": {}
            },
            {
                "species": [
                    {
                        "element": "Sr",
                        "occu": 1
                    }
                ],
                "abc": [
                    0.15971559,
                    0.669683,
                    0.50059021
                ],
                "xyz": [
                    3.150399323885986,
                    1.8518442020620052,
                    5.278049772203906
                ],
                "label": "Sr",
                "properties": {}
            },
            {
                "species": [
                    {
                        "element": "Sr",
                        "occu": 1
                    }
                ],
                "abc": [
                    0.669683,
                    0.15971559,
                    0.00059021
                ],
                "xyz": [
                    5.202619883885986,
                    -1.8518442020620052,
                    0.0059482572039064
                ],
                "label": "Sr",
                "properties": {}
            },
            {
                "species": [
                    {
                        "element": "Sr",
                        "occu": 1
                    }
                ],
                "abc": [
                    0.84028441,
                    0.330317,
                    0.49940979
                ],
                "xyz": [
                    5.296524916114014,
                    -1.8518442020620052,
                    5.265490037796094
                ],
                "label": "Sr",
                "properties": {}
            },
            {
                "species": [
                    {
                        "element": "Ge",
                        "occu": 1
                    }
                ],
                "abc": [
                    0.84608429,
                    0.15391571,
                    0.75
                ],
                "xyz": [
                    3.1973518400000005,
                    -2.513471148523964,
                    7.907820662500001
                ],
                "label": "Ge",
                "properties": {}
            },
            {
                "species": [
                    {
                        "element": "Ge",
                        "occu": 1
                    }
                ],
                "abc": [
                    0.15391571,
                    0.84608429,
                    0.25
                ],
                "xyz": [
                    5.2495724,
                    2.513471148523964,
                    2.6357191475
                ],
                "label": "Ge",
                "properties": {}
            },
            {
                "species": [
                    {
                        "element": "Ge",
                        "occu": 1
                    }
                ],
                "abc": [
                    0.58217787,
                    0.67955744,
                    0.74671
                ],
                "xyz": [
                    4.85342320299623,
                    0.35361434587318286,
                    7.873043440485151
                ],
                "label": "Ge",
                "properties": {}
            },
            {
                "species": [
                    {
                        "element": "Ge",
                        "occu": 1
                    }
                ],
                "abc": [
                    0.32044256,
                    0.41782213,
                    0.75329
                ],
                "xyz": [
                    1.5412804770037698,
                    0.35361434587318286,
                    7.94259788451485
                ],
                "label": "Ge",
                "properties": {}
            },
            {
                "species": [
                    {
                        "element": "Ge",
                        "occu": 1
                    }
                ],
                "abc": [
                    0.41782213,
                    0.32044256,
                    0.25329
                ],
                "xyz": [
                    3.5935010370037697,
                    -0.35361434587318286,
                    2.6704963695148494
                ],
                "label": "Ge",
                "properties": {}
            },
            {
                "species": [
                    {
                        "element": "Ge",
                        "occu": 1
                    }
                ],
                "abc": [
                    0.67955744,
                    0.58217787,
                    0.24671
                ],
                "xyz": [
                    6.905643762996229,
                    -0.35361434587318286,
                    2.600941925485151
                ],
                "label": "Ge",
                "properties": {}
            },
            {
                "species": [
                    {
                        "element": "O",
                        "occu": 1
                    }
                ],
                "abc": [
                    0.34321713,
                    0.65678287,
                    0.75
                ],
                "xyz": [
                    3.1973518400000014,
                    1.1386509925884913,
                    7.907820662500001
                ],
                "label": "O",
                "properties": {}
            },
            {
                "species": [
                    {
                        "element": "O",
                        "occu": 1
                    }
                ],
                "abc": [
                    0.65678287,
                    0.34321713,
                    0.25
                ],
                "xyz": [
                    5.249572400000001,
                    -1.1386509925884913,
                    2.6357191475
                ],
                "label": "O",
                "properties": {}
            },
            {
                "species": [
                    {
                        "element": "O",
                        "occu": 1
                    }
                ],
                "abc": [
                    0.99064343,
                    0.11269502,
                    0.90241436
                ],
                "xyz": [
                    3.220295394380563,
                    -3.188093279858915,
                    9.514874350964106
                ],
                "label": "O",
                "properties": {}
            },
            {
                "species": [
                    {
                        "element": "O",
                        "occu": 1
                    }
                ],
                "abc": [
                    0.88730498,
                    0.00935657,
                    0.59758564
                ],
                "xyz": [
                    3.1744082856194376,
                    -3.1880932798589154,
                    6.300766974035894
                ],
                "label": "O",
                "properties": {}
            },
            {
                "species": [
                    {
                        "element": "O",
                        "occu": 1
                    }
                ],
                "abc": [
                    0.00935657,
                    0.88730498,
                    0.09758564
                ],
                "xyz": [
                    5.226628845619437,
                    3.1880932798589154,
                    1.0286654590358937
                ],
                "label": "O",
                "properties": {}
            },
            {
                "species": [
                    {
                        "element": "O",
                        "occu": 1
                    }
                ],
                "abc": [
                    0.11269502,
                    0.99064343,
                    0.40241436
                ],
                "xyz": [
                    5.272515954380562,
                    3.188093279858915,
                    4.242772835964106
                ],
                "label": "O",
                "properties": {}
            },
            {
                "species": [
                    {
                        "element": "O",
                        "occu": 1
                    }
                ],
                "abc": [
                    0.82247377,
                    0.417091,
                    0.74882935
                ],
                "xyz": [
                    4.705589181824312,
                    -1.4720660919103348,
                    7.89539764914955
                ],
                "label": "O",
                "properties": {}
            },
            {
                "species": [
                    {
                        "element": "O",
                        "occu": 1
                    }
                ],
                "abc": [
                    0.582909,
                    0.17752623,
                    0.75117065
                ],
                "xyz": [
                    1.6891144981756887,
                    -1.4720660919103348,
                    7.92024367585045
                ],
                "label": "O",
                "properties": {}
            },
            {
                "species": [
                    {
                        "element": "O",
                        "occu": 1
                    }
                ],
                "abc": [
                    0.17752623,
                    0.582909,
                    0.25117065
                ],
                "xyz": [
                    3.741335058175689,
                    1.4720660919103348,
                    2.6481421608504494
                ],
                "label": "O",
                "properties": {}
            },
            {
                "species": [
                    {
                        "element": "O",
                        "occu": 1
                    }
                ],
                "abc": [
                    0.417091,
                    0.82247377,
                    0.24882935
                ],
                "xyz": [
                    6.757809741824311,
                    1.4720660919103348,
                    2.623296134149551
                ],
                "label": "O",
                "properties": {}
            },
            {
                "species": [
                    {
                        "element": "O",
                        "occu": 1
                    }
                ],
                "abc": [
                    0.63264135,
                    0.82491085,
                    0.89832506
                ],
                "xyz": [
                    5.460012781345429,
                    0.6981880642301448,
                    9.47163848069189
                ],
                "label": "O",
                "properties": {}
            },
            {
                "species": [
                    {
                        "element": "O",
                        "occu": 1
                    }
                ],
                "abc": [
                    0.17508915,
                    0.36735865,
                    0.60167494
                ],
                "xyz": [
                    0.9346908986545714,
                    0.6981880642301451,
                    6.34400284430811
                ],
                "label": "O",
                "properties": {}
            },
            {
                "species": [
                    {
                        "element": "O",
                        "occu": 1
                    }
                ],
                "abc": [
                    0.71772349,
                    0.5308684,
                    0.09227055
                ],
                "xyz": [
                    7.457047458876449,
                    -0.6785267220159699,
                    0.9725053673331236
                ],
                "label": "O",
                "properties": {}
            },
            {
                "species": [
                    {
                        "element": "O",
                        "occu": 1
                    }
                ],
                "abc": [
                    0.4691316,
                    0.28227651,
                    0.40772945
                ],
                "xyz": [
                    3.042097341123551,
                    -0.6785267220159699,
                    4.298932927666876
                ],
                "label": "O",
                "properties": {}
            },
            {
                "species": [
                    {
                        "element": "O",
                        "occu": 1
                    }
                ],
                "abc": [
                    0.28227651,
                    0.4691316,
                    0.90772945
                ],
                "xyz": [
                    0.9898767811235509,
                    0.6785267220159699,
                    9.571034442666877
                ],
                "label": "O",
                "properties": {}
            },
            {
                "species": [
                    {
                        "element": "O",
                        "occu": 1
                    }
                ],
                "abc": [
                    0.5308684,
                    0.71772349,
                    0.59227055
                ],
                "xyz": [
                    5.40482689887645,
                    0.6785267220159699,
                    6.244606882333123
                ],
                "label": "O",
                "properties": {}
            },
            {
                "species": [
                    {
                        "element": "O",
                        "occu": 1
                    }
                ],
                "abc": [
                    0.82491085,
                    0.63264135,
                    0.39832506
                ],
                "xyz": [
                    7.5122333413454285,
                    -0.6981880642301448,
                    4.19953696569189
                ],
                "label": "O",
                "properties": {}
            },
            {
                "species": [
                    {
                        "element": "O",
                        "occu": 1
                    }
                ],
                "abc": [
                    0.36735865,
                    0.17508915,
                    0.10167494
                ],
                "xyz": [
                    2.9869114586545713,
                    -0.6981880642301451,
                    1.0719013293081103
                ],
                "label": "O",
                "properties": {}
            }
        ]
    },
    "spacegroup": {
        "source": "spglib",
        "symbol": "C2/c",
        "number": 15,
        "point_group": "2/m",
        "crystal_system": "monoclinic",
        "hall": "-C 2yc"
    },
    "dielectric": {
        "epsilon_ionic": [
            [
                5.74149253,
                1e-08,
                0.00682061
            ],
            [
                1e-08,
                5.84470921,
                2e-08
            ],
            [
                0.00682061,
                2e-08,
                4.94068243
            ]
        ],
        "epsilon_ionic_avg": 5.50896139,
        "epsilon_ionic_eig": [
            5.741550617861993,
            4.940624342138004,
            5.844709210000001
        ],
        "epsilon_electronic": [
            [
                3.03471084,
                0.0,
                0.00732477
            ],
            [
                0.0,
                3.03355233,
                0.0
            ],
            [
                0.00732398,
                0.0,
                3.33669367
            ]
        ],
        "epsilon_electronic_avg": 3.1349856133333334,
        "epsilon_electronic_eig": [
            3.0345332969673176,
            3.336871213032682,
            3.03355233
        ]
    },
    "phonon": {
        "lowest_freq": -0.048324913358119434,
        "frequency": [
            -0.048324913358119434,
            -0.03999751995179066,
            -0.034471119235141595,
            2.3159236004061445,
            2.4826633714079014,
            2.683582900031639,
            2.8793959575546695,
            2.9044674312581864,
            2.954455581938986,
            2.982997109843995,
            3.143164457385575,
            3.1975152932562882,
            3.291042924694111,
            3.3015161466616303,
            3.3046447805931525,
            3.5345371628621765,
            3.5791580221809323,
            3.595399064332159,
            3.6345903694818285,
            3.947571820902431,
            3.9897531776265827,
            4.1006750130131175,
            4.212777096948969,
            4.379337365028763,
            4.399034532385125,
            4.429142896679741,
            4.546816260402895,
            4.560012808250521,
            4.6558151336899485,
            4.667293852124979,
            4.7101909752618205,
            4.836562800814928,
            5.316152007953084,
            5.329430668699776,
            5.500208524138315,
            5.563438801962535,
            5.620313658402311,
            5.633052890778966,
            5.742243363305275,
            6.139646753239938,
            7.172647822898703,
            7.278580406764269,
            7.489482653413423,
            7.564167268004216,
            7.643201672300449,
            7.785833746288371,
            7.916915722886922,
            7.966641656985258,
            7.978902155029897,
            8.170627415279919,
            8.428123391032871,
            8.460645969205704,
            8.65666425804488,
            8.80669226800738,
            8.82139203098492,
            8.95742317091408,
            9.180818701234845,
            9.22990866341272,
            9.824228676879523,
            9.86502917362152,
            10.596969985353773,
            10.630718686830532,
            11.098499320645486,
            11.105395082675036,
            11.244235026132944,
            12.11299472877764,
            13.360977431635023,
            13.405619490303756,
            14.59334565746115,
            14.621305700784305,
            14.700606778693443,
            14.726480849476577,
            21.348751065304494,
            21.46812896563013,
            21.56051285935745,
            21.61004952212012,
            22.172687976946747,
            22.175566721499823,
            23.652444081638865,
            23.767384867881002,
            23.964015874992725,
            24.285545431618075,
            24.4804748778876,
            24.49847180680636,
            24.518495708274635,
            24.700597074167113,
            24.75078335137901,
            24.757708265654546,
            24.808155538045405,
            26.31855011448725
        ]
    },
    "born_effective_charge": {
        "avg_abs_trace": 2.176995888888889,
        "tensors": [
            [
                [
                    2.67038,
                    0.33155,
                    0.13099
                ],
                [
                    0.33764,
                    2.25848,
                    0.06849
                ],
                [
                    -0.08053,
                    -0.06087,
                    2.534
                ]
            ],
            [
                [
                    2.67038,
                    -0.33155,
                    0.13099
                ],
                [
                    -0.33764,
                    2.25848,
                    -0.06849
                ],
                [
                    -0.08053,
                    0.06087,
                    2.534
                ]
            ],
            [
                [
                    2.35079,
                    0.16828,
                    -0.03512
                ],
                [
                    0.16901,
                    2.55403,
                    0.0311
                ],
                [
                    0.06413,
                    -0.03002,
                    2.54879
                ]
            ],
            [
                [
                    2.35077,
                    -0.16837,
                    -0.03505
                ],
                [
                    -0.16901,
                    2.55403,
                    -0.0311
                ],
                [
                    0.06427,
                    0.02999,
                    2.54867
                ]
            ],
            [
                [
                    2.35077,
                    0.16837,
                    -0.03505
                ],
                [
                    0.16915,
                    2.5538,
                    0.031
                ],
                [
                    0.06427,
                    -0.02999,
                    2.54867
                ]
            ],
            [
                [
                    2.35079,
                    -0.16828,
                    -0.03512
                ],
                [
                    -0.16915,
                    2.5538,
                    -0.031
                ],
                [
                    0.06413,
                    0.03002,
                    2.54879
                ]
            ],
            [
                [
                    2.73731,
                    -4e-05,
                    -0.00195
                ],
                [
                    0.0,
                    2.95541,
                    0.0
                ],
                [
                    0.00064,
                    -4e-05,
                    3.17113
                ]
            ],
            [
                [
                    2.73731,
                    4e-05,
                    -0.00195
                ],
                [
                    -0.0,
                    2.95572,
                    0.0
                ],
                [
                    0.00064,
                    4e-05,
                    3.17113
                ]
            ],
            [
                [
                    2.89815,
                    0.08793,
                    -0.01823
                ],
                [
                    0.08324,
                    2.79156,
                    0.00221
                ],
                [
                    -0.00934,
                    -0.00043,
                    3.18457
                ]
            ],
            [
                [
                    2.89823,
                    -0.08787,
                    -0.01847
                ],
                [
                    -0.08324,
                    2.79156,
                    -0.00221
                ],
                [
                    -0.00933,
                    0.00042,
                    3.18469
                ]
            ],
            [
                [
                    2.89823,
                    0.08787,
                    -0.01847
                ],
                [
                    0.08347,
                    2.79148,
                    0.00218
                ],
                [
                    -0.00933,
                    -0.00042,
                    3.18469
                ]
            ],
            [
                [
                    2.89815,
                    -0.08793,
                    -0.01823
                ],
                [
                    -0.08347,
                    2.79148,
                    -0.00218
                ],
                [
                    -0.00934,
                    0.00043,
                    3.18457
                ]
            ],
            [
                [
                    -2.72811,
                    0.00017,
                    0.03171
                ],
                [
                    -0.0,
                    -1.24668,
                    0.0
                ],
                [
                    0.01782,
                    -6e-05,
                    -1.52065
                ]
            ],
            [
                [
                    -2.72811,
                    -0.00017,
                    0.03171
                ],
                [
                    0.0,
                    -1.24662,
                    0.0
                ],
                [
                    0.01782,
                    6e-05,
                    -1.52065
                ]
            ],
            [
                [
                    -1.41227,
                    0.02257,
                    -0.01497
                ],
                [
                    -0.01296,
                    -1.91805,
                    0.60014
                ],
                [
                    -0.01532,
                    0.36326,
                    -2.07273
                ]
            ],
            [
                [
                    -1.4123,
                    -0.02281,
                    -0.01544
                ],
                [
                    0.01296,
                    -1.91805,
                    -0.60014
                ],
                [
                    -0.01533,
                    -0.36327,
                    -2.0731
                ]
            ],
            [
                [
                    -1.4123,
                    0.02281,
                    -0.01544
                ],
                [
                    -0.01307,
                    -1.91799,
                    0.5997
                ],
                [
                    -0.01533,
                    0.36327,
                    -2.0731
                ]
            ],
            [
                [
                    -1.41227,
                    -0.02257,
                    -0.01497
                ],
                [
                    0.01307,
                    -1.91799,
                    -0.5997
                ],
                [
                    -0.01532,
                    -0.36326,
                    -2.07273
                ]
            ],
            [
                [
                    -1.62292,
                    -0.6443,
                    0.00698
                ],
                [
                    -0.64169,
                    -2.36266,
                    0.01371
                ],
                [
                    0.00491,
                    0.01148,
                    -1.52334
                ]
            ],
            [
                [
                    -1.62259,
                    0.64437,
                    0.00689
                ],
                [
                    0.64169,
                    -2.36266,
                    -0.01371
                ],
                [
                    0.0049,
                    -0.01151,
                    -1.52329
                ]
            ],
            [
                [
                    -1.62259,
                    -0.64437,
                    0.00689
                ],
                [
                    -0.64166,
                    -2.36256,
                    0.01368
                ],
                [
                    0.0049,
                    0.01151,
                    -1.52329
                ]
            ],
            [
                [
                    -1.62292,
                    0.6443,
                    0.00698
                ],
                [
                    0.64166,
                    -2.36256,
                    -0.01368
                ],
                [
                    0.00491,
                    -0.01148,
                    -1.52334
                ]
            ],
            [
                [
                    -1.79472,
                    -0.24554,
                    -0.5377
                ],
                [
                    -0.20474,
                    -1.52686,
                    -0.31056
                ],
                [
                    -0.32058,
                    -0.18648,
                    -2.07621
                ]
            ],
            [
                [
                    -1.7947,
                    0.24551,
                    -0.53757
                ],
                [
                    0.20474,
                    -1.52686,
                    0.31056
                ],
                [
                    -0.32047,
                    0.18641,
                    -2.07592
                ]
            ],
            [
                [
                    -1.75894,
                    0.20986,
                    0.51907
                ],
                [
                    0.20916,
                    -1.52173,
                    -0.30135
                ],
                [
                    0.30714,
                    -0.18045,
                    -2.15332
                ]
            ],
            [
                [
                    -1.75909,
                    -0.2098,
                    0.51888
                ],
                [
                    -0.20916,
                    -1.52173,
                    0.30135
                ],
                [
                    0.30708,
                    0.18056,
                    -2.1533
                ]
            ],
            [
                [
                    -1.75909,
                    0.2098,
                    0.51888
                ],
                [
                    0.2091,
                    -1.52177,
                    -0.30139
                ],
                [
                    0.30708,
                    -0.18056,
                    -2.1533
                ]
            ],
            [
                [
                    -1.75894,
                    -0.20986,
                    0.51907
                ],
                [
                    -0.2091,
                    -1.52177,
                    0.30139
                ],
                [
                    0.30714,
                    0.18045,
                    -2.15332
                ]
            ],
            [
                [
                    -1.79472,
                    0.24554,
                    -0.5377
                ],
                [
                    0.20471,
                    -1.52665,
                    0.31031
                ],
                [
                    -0.32058,
                    0.18648,
                    -2.07621
                ]
            ],
            [
                [
                    -1.7947,
                    -0.24551,
                    -0.53757
                ],
                [
                    -0.20471,
                    -1.52665,
                    -0.31031
                ],
                [
                    -0.32047,
                    -0.18641,
                    -2.07592
                ]
            ]
        ]
    },
    "band_gap": 3.201,
    "is_direct": false,
    "formula": "SrGeO3"
}