{
    "mp_id": "mp-18160",
    "nelements": 4,
    "nsites": 19,
    "elements": [
        "Cs",
        "O",
        "Sr",
        "V"
    ],
    "structure": {
        "@module": "pymatgen.core.structure",
        "@class": "Structure",
        "charge": null,
        "lattice": {
            "matrix": [
                [
                    7.92926028,
                    0.0,
                    0.0
                ],
                [
                    0.0,
                    7.92926028,
                    0.0
                ],
                [
                    0.0,
                    0.0,
                    5.58526204
                ]
            ],
            "a": 7.92926028,
            "b": 7.92926028,
            "c": 5.58526204,
            "alpha": 90.0,
            "beta": 90.0,
            "gamma": 90.0,
            "volume": 351.1631218489968
        },
        "sites": [
            {
                "species": [
                    {
                        "element": "Cs",
                        "occu": 1
                    }
                ],
                "abc": [
                    0.0,
                    0.5,
                    0.5
                ],
                "xyz": [
                    0.0,
                    3.96463014,
                    2.79263102
                ],
                "label": "Cs",
                "properties": {}
            },
            {
                "species": [
                    {
                        "element": "Cs",
                        "occu": 1
                    }
                ],
                "abc": [
                    0.5,
                    0.0,
                    0.5
                ],
                "xyz": [
                    3.96463014,
                    0.0,
                    2.79263102
                ],
                "label": "Cs",
                "properties": {}
            },
            {
                "species": [
                    {
                        "element": "Sr",
                        "occu": 1
                    }
                ],
                "abc": [
                    0.5,
                    0.5,
                    0.5
                ],
                "xyz": [
                    3.96463014,
                    3.96463014,
                    2.79263102
                ],
                "label": "Sr",
                "properties": {}
            },
            {
                "species": [
                    {
                        "element": "V",
                        "occu": 1
                    }
                ],
                "abc": [
                    0.22346606,
                    0.22346606,
                    0.0
                ],
                "xyz": [
                    1.771920553486097,
                    1.771920553486097,
                    0.0
                ],
                "label": "V",
                "properties": {}
            },
            {
                "species": [
                    {
                        "element": "V",
                        "occu": 1
                    }
                ],
                "abc": [
                    0.22346606,
                    0.77653394,
                    0.0
                ],
                "xyz": [
                    1.771920553486097,
                    6.157339726513904,
                    0.0
                ],
                "label": "V",
                "properties": {}
            },
            {
                "species": [
                    {
                        "element": "V",
                        "occu": 1
                    }
                ],
                "abc": [
                    0.77653394,
                    0.22346606,
                    0.0
                ],
                "xyz": [
                    6.157339726513904,
                    1.771920553486097,
                    0.0
                ],
                "label": "V",
                "properties": {}
            },
            {
                "species": [
                    {
                        "element": "V",
                        "occu": 1
                    }
                ],
                "abc": [
                    0.77653394,
                    0.77653394,
                    0.0
                ],
                "xyz": [
                    6.157339726513904,
                    6.157339726513904,
                    0.0
                ],
                "label": "V",
                "properties": {}
            },
            {
                "species": [
                    {
                        "element": "O",
                        "occu": 1
                    }
                ],
                "abc": [
                    0.69243513,
                    0.69243513,
                    0.75558112
                ],
                "xyz": [
                    5.490498372785637,
                    5.490498372785637,
                    4.220118547676685
                ],
                "label": "O",
                "properties": {}
            },
            {
                "species": [
                    {
                        "element": "O",
                        "occu": 1
                    }
                ],
                "abc": [
                    0.30756487,
                    0.30756487,
                    0.75558112
                ],
                "xyz": [
                    2.4387619072143636,
                    2.4387619072143636,
                    4.220118547676685
                ],
                "label": "O",
                "properties": {}
            },
            {
                "species": [
                    {
                        "element": "O",
                        "occu": 1
                    }
                ],
                "abc": [
                    0.30756487,
                    0.69243513,
                    0.75558112
                ],
                "xyz": [
                    2.4387619072143636,
                    5.490498372785637,
                    4.220118547676685
                ],
                "label": "O",
                "properties": {}
            },
            {
                "species": [
                    {
                        "element": "O",
                        "occu": 1
                    }
                ],
                "abc": [
                    0.69243513,
                    0.30756487,
                    0.75558112
                ],
                "xyz": [
                    5.490498372785637,
                    2.4387619072143636,
                    4.220118547676685
                ],
                "label": "O",
                "properties": {}
            },
            {
                "species": [
                    {
                        "element": "O",
                        "occu": 1
                    }
                ],
                "abc": [
                    0.69243513,
                    0.30756487,
                    0.24441888
                ],
                "xyz": [
                    5.490498372785637,
                    2.4387619072143636,
                    1.3651434923233152
                ],
                "label": "O",
                "properties": {}
            },
            {
                "species": [
                    {
                        "element": "O",
                        "occu": 1
                    }
                ],
                "abc": [
                    0.30756487,
                    0.30756487,
                    0.24441888
                ],
                "xyz": [
                    2.4387619072143636,
                    2.4387619072143636,
                    1.3651434923233152
                ],
                "label": "O",
                "properties": {}
            },
            {
                "species": [
                    {
                        "element": "O",
                        "occu": 1
                    }
                ],
                "abc": [
                    0.69243513,
                    0.69243513,
                    0.24441888
                ],
                "xyz": [
                    5.490498372785637,
                    5.490498372785637,
                    1.3651434923233152
                ],
                "label": "O",
                "properties": {}
            },
            {
                "species": [
                    {
                        "element": "O",
                        "occu": 1
                    }
                ],
                "abc": [
                    0.30756487,
                    0.69243513,
                    0.24441888
                ],
                "xyz": [
                    2.4387619072143636,
                    5.490498372785637,
                    1.3651434923233152
                ],
                "label": "O",
                "properties": {}
            },
            {
                "species": [
                    {
                        "element": "O",
                        "occu": 1
                    }
                ],
                "abc": [
                    0.0,
                    0.26590201,
                    0.0
                ],
                "xyz": [
                    0.0,
                    2.108406246265163,
                    0.0
                ],
                "label": "O",
                "properties": {}
            },
            {
                "species": [
                    {
                        "element": "O",
                        "occu": 1
                    }
                ],
                "abc": [
                    0.26590201,
                    0.0,
                    0.0
                ],
                "xyz": [
                    2.108406246265163,
                    0.0,
                    0.0
                ],
                "label": "O",
                "properties": {}
            },
            {
                "species": [
                    {
                        "element": "O",
                        "occu": 1
                    }
                ],
                "abc": [
                    0.73409799,
                    0.0,
                    0.0
                ],
                "xyz": [
                    5.820854033734837,
                    0.0,
                    0.0
                ],
                "label": "O",
                "properties": {}
            },
            {
                "species": [
                    {
                        "element": "O",
                        "occu": 1
                    }
                ],
                "abc": [
                    0.0,
                    0.73409799,
                    0.0
                ],
                "xyz": [
                    0.0,
                    5.820854033734837,
                    0.0
                ],
                "label": "O",
                "properties": {}
            }
        ]
    },
    "spacegroup": {
        "source": "spglib",
        "symbol": "P4/mmm",
        "number": 123,
        "point_group": "4/mmm",
        "crystal_system": "tetragonal",
        "hall": "-P 4 2"
    },
    "dielectric": {
        "epsilon_ionic": [
            [
                5.03648768,
                -8.8e-07,
                2e-07
            ],
            [
                -8.8e-07,
                5.03659475,
                1.9e-07
            ],
            [
                2e-07,
                1.9e-07,
                5.19759969
            ]
        ],
        "epsilon_ionic_avg": 5.0902273733333345,
        "epsilon_ionic_eig": [
            5.036487672767585,
            5.036594757231946,
            5.197599690000472
        ],
        "epsilon_electronic": [
            [
                3.36930255,
                0.0,
                0.0
            ],
            [
                0.0,
                3.36930255,
                -0.0
            ],
            [
                0.0,
                0.0,
                3.26238819
            ]
        ],
        "epsilon_electronic_avg": 3.3336644300000002,
        "epsilon_electronic_eig": [
            3.36930255,
            3.36930255,
            3.26238819
        ]
    },
    "phonon": {
        "lowest_freq": -0.10947909673207011,
        "frequency": [
            -0.10947909673207011,
            -0.07097682033373204,
            -0.07097682033373204,
            1.4625949020505125,
            1.4917716479463294,
            1.4917716479463294,
            1.5760433024297877,
            1.6312978190115193,
            1.883251695116977,
            2.0205964396191294,
            2.0430719720545274,
            2.0430719720545274,
            2.2317182983430532,
            2.2317182983430532,
            3.224410271513942,
            3.46242995863714,
            3.46242995863714,
            3.5542475030908873,
            3.5627038157824145,
            3.809009531828267,
            4.227088282055175,
            4.227088282055175,
            5.804326547438531,
            5.890222410797793,
            5.890222410797793,
            6.573949486945879,
            6.573949486945879,
            6.939356838655227,
            6.951925129924411,
            6.951925129924411,
            7.220067074309987,
            8.15599120737793,
            8.564001586783858,
            9.049075459906225,
            9.15335955901571,
            9.572673625993414,
            9.572673625993414,
            9.991709666771877,
            10.22131559512377,
            10.230938569386161,
            10.230938569386161,
            12.480599108092864,
            14.078067911945167,
            14.078067911945167,
            16.742419215291076,
            21.2006516394134,
            25.239958138888724,
            25.239958138888724,
            25.79637103336714,
            26.728209246906278,
            27.31770585841117,
            27.34330363900959,
            27.34330363900959,
            27.681371577689518,
            27.78417909272193,
            27.78417909272193,
            28.68850646350571
        ]
    },
    "born_effective_charge": {
        "avg_abs_trace": 2.1954619298245617,
        "tensors": [
            [
                [
                    0.95628,
                    -0.0,
                    -0.0
                ],
                [
                    -0.0,
                    1.50736,
                    0.0
                ],
                [
                    0.0,
                    -0.0,
                    1.62339
                ]
            ],
            [
                [
                    1.50735,
                    -0.0,
                    -0.0
                ],
                [
                    -0.0,
                    0.95634,
                    0.0
                ],
                [
                    0.0,
                    -0.0,
                    1.62339
                ]
            ],
            [
                [
                    3.65385,
                    -0.0,
                    -0.0
                ],
                [
                    -0.0,
                    3.6539,
                    0.0
                ],
                [
                    0.0,
                    -0.0,
                    3.6209
                ]
            ],
            [
                [
                    3.86566,
                    -0.18505,
                    -0.0
                ],
                [
                    -0.18504,
                    3.86565,
                    0.0
                ],
                [
                    -0.00077,
                    -0.00077,
                    3.13415
                ]
            ],
            [
                [
                    3.86566,
                    0.18505,
                    -0.0
                ],
                [
                    0.18527,
                    3.86716,
                    0.0
                ],
                [
                    -0.00077,
                    0.00077,
                    3.13415
                ]
            ],
            [
                [
                    3.86717,
                    0.18527,
                    -0.0
                ],
                [
                    0.18504,
                    3.86565,
                    0.0
                ],
                [
                    0.00077,
                    -0.00077,
                    3.13415
                ]
            ],
            [
                [
                    3.86717,
                    -0.18527,
                    -0.0
                ],
                [
                    -0.18527,
                    3.86716,
                    0.0
                ],
                [
                    0.00077,
                    0.00077,
                    3.13415
                ]
            ],
            [
                [
                    -1.30017,
                    -0.28498,
                    -0.92087
                ],
                [
                    -0.28499,
                    -1.30018,
                    -0.92087
                ],
                [
                    -0.77182,
                    -0.77182,
                    -2.17878
                ]
            ],
            [
                [
                    -1.29986,
                    -0.28483,
                    0.92177
                ],
                [
                    -0.28484,
                    -1.29987,
                    0.92177
                ],
                [
                    0.77182,
                    0.77182,
                    -2.17878
                ]
            ],
            [
                [
                    -1.29986,
                    0.28483,
                    0.92177
                ],
                [
                    0.28499,
                    -1.30018,
                    -0.92087
                ],
                [
                    0.77182,
                    -0.77182,
                    -2.17878
                ]
            ],
            [
                [
                    -1.30017,
                    0.28498,
                    -0.92087
                ],
                [
                    0.28484,
                    -1.29987,
                    0.92177
                ],
                [
                    -0.77182,
                    0.77182,
                    -2.17878
                ]
            ],
            [
                [
                    -1.30017,
                    0.28498,
                    0.92087
                ],
                [
                    0.28484,
                    -1.29987,
                    -0.92177
                ],
                [
                    0.77056,
                    -0.77056,
                    -2.17909
                ]
            ],
            [
                [
                    -1.29986,
                    -0.28483,
                    -0.92177
                ],
                [
                    -0.28484,
                    -1.29987,
                    -0.92177
                ],
                [
                    -0.77056,
                    -0.77056,
                    -2.17909
                ]
            ],
            [
                [
                    -1.30017,
                    -0.28498,
                    0.92087
                ],
                [
                    -0.28499,
                    -1.30018,
                    0.92087
                ],
                [
                    0.77056,
                    0.77056,
                    -2.17909
                ]
            ],
            [
                [
                    -1.29986,
                    0.28483,
                    -0.92177
                ],
                [
                    0.28499,
                    -1.30018,
                    0.92087
                ],
                [
                    -0.77056,
                    0.77056,
                    -2.17909
                ]
            ],
            [
                [
                    -4.79225,
                    -0.00068,
                    -0.0
                ],
                [
                    -0.0,
                    -0.799,
                    0.0
                ],
                [
                    0.0,
                    -0.00033,
                    -0.49321
                ]
            ],
            [
                [
                    -0.79901,
                    -0.0,
                    -0.0
                ],
                [
                    -0.00068,
                    -4.79227,
                    0.0
                ],
                [
                    -0.00033,
                    -0.0,
                    -0.49321
                ]
            ],
            [
                [
                    -0.7995,
                    -0.0,
                    -0.0
                ],
                [
                    0.00068,
                    -4.79227,
                    0.0
                ],
                [
                    0.00033,
                    -0.0,
                    -0.49321
                ]
            ],
            [
                [
                    -4.79225,
                    0.00068,
                    -0.0
                ],
                [
                    -0.0,
                    -0.7995,
                    0.0
                ],
                [
                    0.0,
                    0.00033,
                    -0.49321
                ]
            ]
        ]
    },
    "band_gap": 2.6457,
    "is_direct": false,
    "formula": "Cs2SrV4O12"
}