{
    "mp_id": "mp-1207861",
    "nelements": 4,
    "nsites": 20,
    "elements": [
        "Bi",
        "Cd",
        "O",
        "V"
    ],
    "structure": {
        "@module": "pymatgen.core.structure",
        "@class": "Structure",
        "charge": null,
        "lattice": {
            "matrix": [
                [
                    4.35924423,
                    -5.7107056,
                    0.0
                ],
                [
                    4.35924423,
                    5.7107056,
                    0.0
                ],
                [
                    0.0,
                    0.0,
                    5.61327003
                ]
            ],
            "a": 7.1843697501353345,
            "b": 7.1843697501353345,
            "c": 5.61327003,
            "alpha": 90.0,
            "beta": 90.0,
            "gamma": 105.28768193949038,
            "volume": 279.47753470315513
        },
        "sites": [
            {
                "species": [
                    {
                        "element": "V",
                        "occu": 1
                    }
                ],
                "abc": [
                    0.17022144,
                    0.82977856,
                    0.51338887
                ],
                "xyz": [
                    4.35924423,
                    3.766536538703872,
                    2.8817903577065658
                ],
                "label": "V",
                "properties": {}
            },
            {
                "species": [
                    {
                        "element": "V",
                        "occu": 1
                    }
                ],
                "abc": [
                    0.82977856,
                    0.17022144,
                    0.01338887
                ],
                "xyz": [
                    4.35924423,
                    -3.766536538703872,
                    0.0751553427065661
                ],
                "label": "V",
                "properties": {}
            },
            {
                "species": [
                    {
                        "element": "Cd",
                        "occu": 1
                    }
                ],
                "abc": [
                    0.31510992,
                    0.09137558,
                    0.02234027
                ],
                "xyz": [
                    1.7719695704536647,
                    -1.2776809483503038,
                    0.12540196805310808
                ],
                "label": "Cd",
                "properties": {}
            },
            {
                "species": [
                    {
                        "element": "Cd",
                        "occu": 1
                    }
                ],
                "abc": [
                    0.68489008,
                    0.90862442,
                    0.52234027
                ],
                "xyz": [
                    6.946518889546335,
                    1.2776809483503042,
                    2.9320369830531083
                ],
                "label": "Cd",
                "properties": {}
            },
            {
                "species": [
                    {
                        "element": "Cd",
                        "occu": 1
                    }
                ],
                "abc": [
                    0.09137558,
                    0.31510992,
                    0.52234027
                ],
                "xyz": [
                    1.7719695704536647,
                    1.2776809483503038,
                    2.9320369830531083
                ],
                "label": "Cd",
                "properties": {}
            },
            {
                "species": [
                    {
                        "element": "Cd",
                        "occu": 1
                    }
                ],
                "abc": [
                    0.90862442,
                    0.68489008,
                    0.02234027
                ],
                "xyz": [
                    6.946518889546335,
                    -1.2776809483503042,
                    0.12540196805310808
                ],
                "label": "Cd",
                "properties": {}
            },
            {
                "species": [
                    {
                        "element": "Bi",
                        "occu": 1
                    }
                ],
                "abc": [
                    0.40250614,
                    0.59749386,
                    0.04089726
                ],
                "xyz": [
                    4.35924423,
                    1.113517464535232,
                    0.2295673638671178
                ],
                "label": "Bi",
                "properties": {}
            },
            {
                "species": [
                    {
                        "element": "Bi",
                        "occu": 1
                    }
                ],
                "abc": [
                    0.59749386,
                    0.40250614,
                    0.54089726
                ],
                "xyz": [
                    4.35924423,
                    -1.113517464535232,
                    3.036202378867118
                ],
                "label": "Bi",
                "properties": {}
            },
            {
                "species": [
                    {
                        "element": "O",
                        "occu": 1
                    }
                ],
                "abc": [
                    0.38711462,
                    0.93164914,
                    0.36816647
                ],
                "xyz": [
                    5.748813311513104,
                    3.109676332757312,
                    2.066617812101894
                ],
                "label": "O",
                "properties": {}
            },
            {
                "species": [
                    {
                        "element": "O",
                        "occu": 1
                    }
                ],
                "abc": [
                    0.61288538,
                    0.06835086,
                    0.86816647
                ],
                "xyz": [
                    2.9696751484868953,
                    -3.109676332757312,
                    4.8732528271018944
                ],
                "label": "O",
                "properties": {}
            },
            {
                "species": [
                    {
                        "element": "O",
                        "occu": 1
                    }
                ],
                "abc": [
                    0.93164914,
                    0.38711462,
                    0.86816647
                ],
                "xyz": [
                    5.748813311513104,
                    -3.109676332757312,
                    4.8732528271018944
                ],
                "label": "O",
                "properties": {}
            },
            {
                "species": [
                    {
                        "element": "O",
                        "occu": 1
                    }
                ],
                "abc": [
                    0.06835086,
                    0.61288538,
                    0.36816647
                ],
                "xyz": [
                    2.9696751484868953,
                    3.109676332757312,
                    2.066617812101894
                ],
                "label": "O",
                "properties": {}
            },
            {
                "species": [
                    {
                        "element": "O",
                        "occu": 1
                    }
                ],
                "abc": [
                    0.35031285,
                    0.33808704,
                    0.28155038
                ],
                "xyz": [
                    3.000903248415135,
                    -0.06981800163153573,
                    1.5804183099891114
                ],
                "label": "O",
                "properties": {}
            },
            {
                "species": [
                    {
                        "element": "O",
                        "occu": 1
                    }
                ],
                "abc": [
                    0.64968715,
                    0.66191296,
                    0.78155038
                ],
                "xyz": [
                    5.717585211584865,
                    0.06981800163153595,
                    4.387053324989111
                ],
                "label": "O",
                "properties": {}
            },
            {
                "species": [
                    {
                        "element": "O",
                        "occu": 1
                    }
                ],
                "abc": [
                    0.33808704,
                    0.35031285,
                    0.78155038
                ],
                "xyz": [
                    3.000903248415135,
                    0.06981800163153573,
                    4.387053324989111
                ],
                "label": "O",
                "properties": {}
            },
            {
                "species": [
                    {
                        "element": "O",
                        "occu": 1
                    }
                ],
                "abc": [
                    0.66191296,
                    0.64968715,
                    0.28155038
                ],
                "xyz": [
                    5.717585211584865,
                    -0.06981800163153595,
                    1.5804183099891114
                ],
                "label": "O",
                "properties": {}
            },
            {
                "species": [
                    {
                        "element": "O",
                        "occu": 1
                    }
                ],
                "abc": [
                    0.2046989,
                    0.7953011,
                    0.81791953
                ],
                "xyz": [
                    4.35924423,
                    3.3727552909123197,
                    4.591203184700685
                ],
                "label": "O",
                "properties": {}
            },
            {
                "species": [
                    {
                        "element": "O",
                        "occu": 1
                    }
                ],
                "abc": [
                    0.7953011,
                    0.2046989,
                    0.31791953
                ],
                "xyz": [
                    4.35924423,
                    -3.3727552909123197,
                    1.7845681697006859
                ],
                "label": "O",
                "properties": {}
            },
            {
                "species": [
                    {
                        "element": "O",
                        "occu": 1
                    }
                ],
                "abc": [
                    0.0214877,
                    0.9785123,
                    0.49368109
                ],
                "xyz": [
                    4.35924423,
                    5.46528574255776,
                    2.7711652668747324
                ],
                "label": "O",
                "properties": {}
            },
            {
                "species": [
                    {
                        "element": "O",
                        "occu": 1
                    }
                ],
                "abc": [
                    0.9785123,
                    0.0214877,
                    0.99368109
                ],
                "xyz": [
                    4.35924423,
                    -5.46528574255776,
                    5.577800281874732
                ],
                "label": "O",
                "properties": {}
            }
        ]
    },
    "spacegroup": {
        "source": "spglib",
        "symbol": "Cmc2_1",
        "number": 36,
        "point_group": "mm2",
        "crystal_system": "orthorhombic",
        "hall": "C 2c -2"
    },
    "dielectric": {
        "epsilon_ionic": [
            [
                9.1033559,
                0.0,
                1.67e-06
            ],
            [
                0.0,
                9.14025668,
                4.026e-05
            ],
            [
                1.67e-06,
                4.026e-05,
                15.11081606
            ]
        ],
        "epsilon_ionic_avg": 11.118142879999999,
        "epsilon_ionic_eig": [
            9.103355899999531,
            15.110816060271944,
            9.140256679728523
        ],
        "epsilon_electronic": [
            [
                4.84584239,
                0.0,
                0.0
            ],
            [
                0.0,
                5.14518324,
                0.0
            ],
            [
                0.0,
                0.0,
                5.67476459
            ]
        ],
        "epsilon_electronic_avg": 5.221930073333333,
        "epsilon_electronic_eig": [
            4.84584239,
            5.14518324,
            5.67476459
        ]
    },
    "phonon": {
        "lowest_freq": -0.07844737825086344,
        "frequency": [
            -0.07844737825086344,
            -0.05213389603723204,
            -0.025450853032649136,
            1.4717649339869772,
            1.9246133329826098,
            1.9512406897333279,
            2.124085282659926,
            2.416958058191303,
            2.431787910102884,
            2.451820703357139,
            2.854612097074449,
            3.1070748927560916,
            3.282259551725375,
            3.3781029835631866,
            3.4287865944670353,
            3.465296971964809,
            3.6792243573600865,
            4.061815340202474,
            4.465248040901437,
            4.695607374846856,
            4.698240112247911,
            4.978474174879608,
            5.430533322267873,
            5.532070410906173,
            5.635942122788464,
            5.779894574878181,
            5.940321576192824,
            7.037898788590396,
            7.161247941906816,
            7.475684856703434,
            7.6793870217099265,
            8.42665560798424,
            8.594676294839035,
            9.125575032748484,
            9.157849217388996,
            9.199729083155226,
            9.678711000061414,
            9.887808188368085,
            9.968767336376699,
            10.055886170741386,
            10.081975075421568,
            10.184500658370581,
            10.97046476170183,
            11.075665360315774,
            11.212965529105213,
            12.13455851902991,
            12.735692468944583,
            13.290308807318198,
            13.574108258697901,
            14.545988930605315,
            14.814004360884825,
            15.956625164599403,
            21.23582589150768,
            21.962743978300537,
            22.330677691998368,
            22.763089305744533,
            23.162713863587886,
            23.791649113891197,
            25.08676278819157,
            25.106514132473635
        ]
    },
    "born_effective_charge": {
        "avg_abs_trace": 2.569453833333333,
        "tensors": [
            [
                [
                    3.3473,
                    -0.0,
                    0.0
                ],
                [
                    0.0,
                    3.46635,
                    0.30464
                ],
                [
                    0.0,
                    0.30905,
                    4.2076
                ]
            ],
            [
                [
                    3.3473,
                    0.0,
                    0.0
                ],
                [
                    0.0,
                    3.46635,
                    -0.30464
                ],
                [
                    0.0,
                    -0.30905,
                    4.2076
                ]
            ],
            [
                [
                    2.69383,
                    -0.2822,
                    0.20871
                ],
                [
                    0.18034,
                    2.64622,
                    0.07445
                ],
                [
                    -0.15491,
                    -0.07461,
                    2.51311
                ]
            ],
            [
                [
                    2.69383,
                    -0.28221,
                    -0.20871
                ],
                [
                    0.18033,
                    2.64622,
                    -0.07444
                ],
                [
                    0.15491,
                    0.07461,
                    2.51311
                ]
            ],
            [
                [
                    2.69383,
                    0.2822,
                    0.20871
                ],
                [
                    -0.18033,
                    2.64622,
                    -0.07444
                ],
                [
                    -0.15491,
                    0.07461,
                    2.51311
                ]
            ],
            [
                [
                    2.69383,
                    0.28221,
                    -0.20871
                ],
                [
                    -0.18034,
                    2.64622,
                    0.07445
                ],
                [
                    0.15491,
                    -0.07461,
                    2.51311
                ]
            ],
            [
                [
                    3.10493,
                    1e-05,
                    0.0
                ],
                [
                    0.0,
                    3.6496,
                    -0.14328
                ],
                [
                    0.0,
                    -0.46398,
                    5.05972
                ]
            ],
            [
                [
                    3.10493,
                    -1e-05,
                    0.0
                ],
                [
                    0.0,
                    3.64958,
                    0.14328
                ],
                [
                    0.0,
                    0.46398,
                    5.05972
                ]
            ],
            [
                [
                    -2.57971,
                    -0.63212,
                    -0.81985
                ],
                [
                    -0.79962,
                    -1.70886,
                    -0.31852
                ],
                [
                    -1.0279,
                    -0.40998,
                    -1.80929
                ]
            ],
            [
                [
                    -2.5797,
                    -0.63212,
                    0.81985
                ],
                [
                    -0.79961,
                    -1.70883,
                    0.3185
                ],
                [
                    1.0279,
                    0.40998,
                    -1.80929
                ]
            ],
            [
                [
                    -2.57971,
                    0.63212,
                    -0.81985
                ],
                [
                    0.79961,
                    -1.70883,
                    0.3185
                ],
                [
                    -1.0279,
                    0.40998,
                    -1.80929
                ]
            ],
            [
                [
                    -2.5797,
                    0.63212,
                    0.81985
                ],
                [
                    0.79962,
                    -1.70886,
                    -0.31852
                ],
                [
                    1.0279,
                    -0.40998,
                    -1.80929
                ]
            ],
            [
                [
                    -2.11116,
                    0.12897,
                    0.08308
                ],
                [
                    0.06811,
                    -1.74479,
                    0.54907
                ],
                [
                    -0.0702,
                    0.99548,
                    -2.90866
                ]
            ],
            [
                [
                    -2.11115,
                    0.12897,
                    -0.08308
                ],
                [
                    0.06812,
                    -1.7448,
                    -0.54907
                ],
                [
                    0.0702,
                    -0.99548,
                    -2.90866
                ]
            ],
            [
                [
                    -2.11116,
                    -0.12897,
                    0.08308
                ],
                [
                    -0.06812,
                    -1.7448,
                    -0.54907
                ],
                [
                    -0.0702,
                    -0.99548,
                    -2.90866
                ]
            ],
            [
                [
                    -2.11115,
                    -0.12897,
                    -0.08308
                ],
                [
                    -0.06811,
                    -1.74479,
                    0.54907
                ],
                [
                    0.0702,
                    0.99548,
                    -2.90866
                ]
            ],
            [
                [
                    -1.22038,
                    -1e-05,
                    -0.0
                ],
                [
                    0.0,
                    -1.72766,
                    0.60847
                ],
                [
                    0.0,
                    0.80955,
                    -4.04802
                ]
            ],
            [
                [
                    -1.22038,
                    1e-05,
                    -0.0
                ],
                [
                    0.0,
                    -1.72766,
                    -0.60846
                ],
                [
                    0.0,
                    -0.80955,
                    -4.04802
                ]
            ],
            [
                [
                    -1.23781,
                    -0.0,
                    0.0
                ],
                [
                    0.0,
                    -3.77344,
                    0.07678
                ],
                [
                    0.0,
                    0.22017,
                    -0.8096
                ]
            ],
            [
                [
                    -1.23781,
                    0.0,
                    0.0
                ],
                [
                    0.0,
                    -3.77343,
                    -0.07677
                ],
                [
                    0.0,
                    -0.22017,
                    -0.8096
                ]
            ]
        ]
    },
    "band_gap": 2.2523,
    "is_direct": false,
    "formula": "VCd2BiO6"
}