{
    "mp_id": "mp-13660",
    "nelements": 3,
    "nsites": 7,
    "elements": [
        "Ca",
        "O",
        "Sb"
    ],
    "structure": {
        "@module": "pymatgen.core.structure",
        "@class": "Structure",
        "charge": null,
        "lattice": {
            "matrix": [
                [
                    -2.32217561,
                    2.32217561,
                    8.06101038
                ],
                [
                    2.32217561,
                    -2.32217561,
                    8.06101038
                ],
                [
                    2.32217561,
                    2.32217561,
                    -8.06101038
                ]
            ],
            "a": 8.704302813771216,
            "b": 8.704302813771216,
            "c": 8.704302813771216,
            "alpha": 149.05393518970106,
            "beta": 149.05393518970106,
            "gamma": 44.33192235538377,
            "volume": 173.87597982784345
        },
        "sites": [
            {
                "species": [
                    {
                        "element": "Ca",
                        "occu": 1
                    }
                ],
                "abc": [
                    0.66471451,
                    0.66471451,
                    0.0
                ],
                "xyz": [
                    0.0,
                    0.0,
                    10.71654112969323
                ],
                "label": "Ca",
                "properties": {}
            },
            {
                "species": [
                    {
                        "element": "Ca",
                        "occu": 1
                    }
                ],
                "abc": [
                    0.33528549,
                    0.33528549,
                    0.0
                ],
                "xyz": [
                    0.0,
                    0.0,
                    5.405479630306774
                ],
                "label": "Ca",
                "properties": {}
            },
            {
                "species": [
                    {
                        "element": "Ca",
                        "occu": 1
                    }
                ],
                "abc": [
                    0.0,
                    0.5,
                    0.5
                ],
                "xyz": [
                    2.32217561,
                    0.0,
                    0.0
                ],
                "label": "Ca",
                "properties": {}
            },
            {
                "species": [
                    {
                        "element": "Ca",
                        "occu": 1
                    }
                ],
                "abc": [
                    0.5,
                    0.0,
                    0.5
                ],
                "xyz": [
                    0.0,
                    2.32217561,
                    0.0
                ],
                "label": "Ca",
                "properties": {}
            },
            {
                "species": [
                    {
                        "element": "Sb",
                        "occu": 1
                    }
                ],
                "abc": [
                    0.86049572,
                    0.86049572,
                    0.0
                ],
                "xyz": [
                    0.0,
                    0.0,
                    13.872929861731148
                ],
                "label": "Sb",
                "properties": {}
            },
            {
                "species": [
                    {
                        "element": "Sb",
                        "occu": 1
                    }
                ],
                "abc": [
                    0.13950428,
                    0.13950428,
                    0.0
                ],
                "xyz": [
                    0.0,
                    0.0,
                    2.2490908982688533
                ],
                "label": "Sb",
                "properties": {}
            },
            {
                "species": [
                    {
                        "element": "O",
                        "occu": 1
                    }
                ],
                "abc": [
                    0.5,
                    0.5,
                    0.0
                ],
                "xyz": [
                    0.0,
                    0.0,
                    8.06101038
                ],
                "label": "O",
                "properties": {}
            }
        ]
    },
    "spacegroup": {
        "source": "spglib",
        "symbol": "I4/mmm",
        "number": 139,
        "point_group": "4/mmm",
        "crystal_system": "tetragonal",
        "hall": "-I 4 2"
    },
    "dielectric": {
        "epsilon_ionic": [
            [
                10.61923513,
                1e-08,
                0.0
            ],
            [
                1e-08,
                10.61925364,
                0.0
            ],
            [
                0.0,
                0.0,
                31.55402591
            ]
        ],
        "epsilon_ionic_avg": 17.597504893333333,
        "epsilon_ionic_eig": [
            10.619235129994598,
            10.619253640005402,
            31.55402591
        ],
        "epsilon_electronic": [
            [
                10.03904524,
                0.0,
                0.0
            ],
            [
                0.0,
                10.03904524,
                -0.0
            ],
            [
                0.0,
                -0.0,
                8.53635465
            ]
        ],
        "epsilon_electronic_avg": 9.538148376666667,
        "epsilon_electronic_eig": [
            10.03904524,
            10.03904524,
            8.53635465
        ]
    },
    "phonon": {
        "lowest_freq": -0.010232201539593073,
        "frequency": [
            -0.010232201539593073,
            -0.004515186369745139,
            -0.0045151863670387146,
            2.2847925717624,
            2.4195193926061607,
            2.4195193926061607,
            3.6741281260185175,
            3.9721388598495997,
            3.9721388598495997,
            4.412780375963749,
            4.412780375963749,
            4.482841132490339,
            4.482841132490339,
            4.806302277892624,
            4.81289642005152,
            5.066793455137014,
            7.385631417954978,
            7.385631417954978,
            8.865836023243107,
            10.093481100762602,
            10.093481100762602
        ]
    },
    "born_effective_charge": {
        "avg_abs_trace": 2.6759680952380953,
        "tensors": [
            [
                [
                    2.5268,
                    -0.0,
                    8e-05
                ],
                [
                    0.0,
                    2.52681,
                    -3e-05
                ],
                [
                    0.0,
                    0.0,
                    2.19363
                ]
            ],
            [
                [
                    2.5268,
                    -0.0,
                    -8e-05
                ],
                [
                    -0.0,
                    2.52681,
                    3e-05
                ],
                [
                    -0.0,
                    -0.0,
                    2.19343
                ]
            ],
            [
                [
                    2.71997,
                    -0.0,
                    0.0
                ],
                [
                    -0.0,
                    1.93619,
                    -0.0
                ],
                [
                    0.0,
                    0.0,
                    2.14552
                ]
            ],
            [
                [
                    1.93621,
                    -0.0,
                    0.0
                ],
                [
                    -0.0,
                    2.71998,
                    0.0
                ],
                [
                    0.0,
                    0.0,
                    2.14552
                ]
            ],
            [
                [
                    -3.1325,
                    0.0,
                    7e-05
                ],
                [
                    -0.0,
                    -3.13247,
                    0.00031
                ],
                [
                    -0.0,
                    -0.0,
                    -2.93386
                ]
            ],
            [
                [
                    -3.1325,
                    0.0,
                    -7e-05
                ],
                [
                    0.0,
                    -3.13247,
                    -0.00031
                ],
                [
                    -0.0,
                    -0.0,
                    -2.93388
                ]
            ],
            [
                [
                    -3.44478,
                    -0.0,
                    0.0
                ],
                [
                    -0.0,
                    -3.44484,
                    -0.0
                ],
                [
                    0.0,
                    0.0,
                    -2.81036
                ]
            ]
        ]
    },
    "band_gap": 0.7976999999999999,
    "is_direct": false,
    "formula": "Ca4Sb2O"
}