{
    "mp_id": "mp-17288",
    "nelements": 4,
    "nsites": 32,
    "elements": [
        "Li",
        "O",
        "Si",
        "Zn"
    ],
    "structure": {
        "@module": "pymatgen.core.structure",
        "@class": "Structure",
        "charge": null,
        "lattice": {
            "matrix": [
                [
                    5.00571082,
                    0.0,
                    0.00019423
                ],
                [
                    0.0,
                    10.53931488,
                    0.0
                ],
                [
                    -4.96611635,
                    0.0,
                    6.24877836
                ]
            ],
            "a": 5.005710823768226,
            "b": 10.53931488,
            "c": 7.981825768215041,
            "alpha": 90.0,
            "beta": 128.4731350348673,
            "gamma": 90.0,
            "volume": 329.67548193647303
        },
        "sites": [
            {
                "species": [
                    {
                        "element": "Li",
                        "occu": 1
                    }
                ],
                "abc": [
                    0.31755782,
                    0.33593647,
                    0.50861415
                ],
                "xyz": [
                    -0.9362344306067403,
                    3.5405402370056733,
                    3.1782787733651725
                ],
                "label": "Li",
                "properties": {}
            },
            {
                "species": [
                    {
                        "element": "Li",
                        "occu": 1
                    }
                ],
                "abc": [
                    0.4638614,
                    0.42302541,
                    0.25999083
                ],
                "xyz": [
                    1.0308113172472775,
                    4.4583979982311,
                    1.624715168102161
                ],
                "label": "Li",
                "properties": {}
            },
            {
                "species": [
                    {
                        "element": "Li",
                        "occu": 1
                    }
                ],
                "abc": [
                    0.5361386,
                    0.92302541,
                    0.24000917
                ],
                "xyz": [
                    1.4918413277527225,
                    9.7280554382311,
                    1.4998682418978393
                ],
                "label": "Li",
                "properties": {}
            },
            {
                "species": [
                    {
                        "element": "Li",
                        "occu": 1
                    }
                ],
                "abc": [
                    0.5361386,
                    0.57697459,
                    0.74000917
                ],
                "xyz": [
                    -0.9912168472472773,
                    6.080916881768898,
                    4.624257421897839
                ],
                "label": "Li",
                "properties": {}
            },
            {
                "species": [
                    {
                        "element": "Li",
                        "occu": 1
                    }
                ],
                "abc": [
                    0.4638614,
                    0.07697459,
                    0.75999083
                ],
                "xyz": [
                    -1.4522468577527228,
                    0.8112594417688991,
                    4.749104348102161
                ],
                "label": "Li",
                "properties": {}
            },
            {
                "species": [
                    {
                        "element": "Li",
                        "occu": 1
                    }
                ],
                "abc": [
                    0.68244218,
                    0.83593647,
                    0.99138585
                ],
                "xyz": [
                    -1.5072292743932598,
                    8.810197677005673,
                    6.195082996634827
                ],
                "label": "Li",
                "properties": {}
            },
            {
                "species": [
                    {
                        "element": "Li",
                        "occu": 1
                    }
                ],
                "abc": [
                    0.68244218,
                    0.66406353,
                    0.49138585
                ],
                "xyz": [
                    0.9758289006067402,
                    6.998774642994325,
                    3.0706938166348277
                ],
                "label": "Li",
                "properties": {}
            },
            {
                "species": [
                    {
                        "element": "Li",
                        "occu": 1
                    }
                ],
                "abc": [
                    0.31755782,
                    0.16406353,
                    0.00861415
                ],
                "xyz": [
                    1.5468237443932598,
                    1.7291172029943265,
                    0.0538895933651726
                ],
                "label": "Li",
                "properties": {}
            },
            {
                "species": [
                    {
                        "element": "Zn",
                        "occu": 1
                    }
                ],
                "abc": [
                    0.81444157,
                    0.33539756,
                    0.00370576
                ],
                "xyz": [
                    4.058455743881611,
                    3.5348604948236924,
                    0.023314661881494697
                ],
                "label": "Zn",
                "properties": {}
            },
            {
                "species": [
                    {
                        "element": "Zn",
                        "occu": 1
                    }
                ],
                "abc": [
                    0.18555843,
                    0.83539756,
                    0.49629424
                ],
                "xyz": [
                    -1.5358030988816114,
                    8.804517934823691,
                    3.101268748118505
                ],
                "label": "Zn",
                "properties": {}
            },
            {
                "species": [
                    {
                        "element": "Zn",
                        "occu": 1
                    }
                ],
                "abc": [
                    0.18555843,
                    0.66460244,
                    0.99629424
                ],
                "xyz": [
                    -4.018861273881611,
                    7.004454385176307,
                    6.225657928118506
                ],
                "label": "Zn",
                "properties": {}
            },
            {
                "species": [
                    {
                        "element": "Zn",
                        "occu": 1
                    }
                ],
                "abc": [
                    0.81444157,
                    0.16460244,
                    0.50370576
                ],
                "xyz": [
                    1.5753975688816113,
                    1.734796945176307,
                    3.147703841881495
                ],
                "label": "Zn",
                "properties": {}
            },
            {
                "species": [
                    {
                        "element": "Si",
                        "occu": 1
                    }
                ],
                "abc": [
                    0.0679496,
                    0.08783693,
                    0.25566506
                ],
                "xyz": [
                    -0.9295263866550589,
                    0.9257410633625183,
                    1.5976074921869097
                ],
                "label": "Si",
                "properties": {}
            },
            {
                "species": [
                    {
                        "element": "Si",
                        "occu": 1
                    }
                ],
                "abc": [
                    0.9320504,
                    0.58783693,
                    0.24433494
                ],
                "xyz": [
                    3.4521790316550582,
                    6.195398503362518,
                    1.5269759178130904
                ],
                "label": "Si",
                "properties": {}
            },
            {
                "species": [
                    {
                        "element": "Si",
                        "occu": 1
                    }
                ],
                "abc": [
                    0.9320504,
                    0.91216307,
                    0.74433494
                ],
                "xyz": [
                    0.9691208566550586,
                    9.61357381663748,
                    4.651365097813091
                ],
                "label": "Si",
                "properties": {}
            },
            {
                "species": [
                    {
                        "element": "Si",
                        "occu": 1
                    }
                ],
                "abc": [
                    0.0679496,
                    0.41216307,
                    0.75566506
                ],
                "xyz": [
                    -3.412584561655059,
                    4.343916376637481,
                    4.7219966721869095
                ],
                "label": "Si",
                "properties": {}
            },
            {
                "species": [
                    {
                        "element": "O",
                        "occu": 1
                    }
                ],
                "abc": [
                    0.17089975,
                    0.34008658,
                    0.97182819
                ],
                "xyz": [
                    -3.9707371360396113,
                    3.5842795530823106,
                    6.072772157168411
                ],
                "label": "O",
                "properties": {}
            },
            {
                "species": [
                    {
                        "element": "O",
                        "occu": 1
                    }
                ],
                "abc": [
                    0.82910025,
                    0.84008658,
                    0.52817181
                ],
                "xyz": [
                    1.5272734310396117,
                    8.85393699308231,
                    3.3005896128315895
                ],
                "label": "O",
                "properties": {}
            },
            {
                "species": [
                    {
                        "element": "O",
                        "occu": 1
                    }
                ],
                "abc": [
                    0.82910025,
                    0.65991342,
                    0.02817181
                ],
                "xyz": [
                    4.010331606039612,
                    6.955035326917689,
                    0.1762004328315891
                ],
                "label": "O",
                "properties": {}
            },
            {
                "species": [
                    {
                        "element": "O",
                        "occu": 1
                    }
                ],
                "abc": [
                    0.74696299,
                    0.16244282,
                    0.03975332
                ],
                "xyz": [
                    3.54166110876377,
                    1.7120360299751614,
                    0.24855476837570292
                ],
                "label": "O",
                "properties": {}
            },
            {
                "species": [
                    {
                        "element": "O",
                        "occu": 1
                    }
                ],
                "abc": [
                    0.17089975,
                    0.15991342,
                    0.47182819
                ],
                "xyz": [
                    -1.4876789610396115,
                    1.6853778869176894,
                    2.9483829771684107
                ],
                "label": "O",
                "properties": {}
            },
            {
                "species": [
                    {
                        "element": "O",
                        "occu": 1
                    }
                ],
                "abc": [
                    0.74696299,
                    0.33755718,
                    0.53975332
                ],
                "xyz": [
                    1.05860293376377,
                    3.5576214100248382,
                    3.3729439483757027
                ],
                "label": "O",
                "properties": {}
            },
            {
                "species": [
                    {
                        "element": "O",
                        "occu": 1
                    }
                ],
                "abc": [
                    0.25303701,
                    0.83755718,
                    0.96024668
                ],
                "xyz": [
                    -3.5020666387637704,
                    8.827278850024838,
                    6.000417821624297
                ],
                "label": "O",
                "properties": {}
            },
            {
                "species": [
                    {
                        "element": "O",
                        "occu": 1
                    }
                ],
                "abc": [
                    0.25303701,
                    0.66244282,
                    0.46024668
                ],
                "xyz": [
                    -1.01900846376377,
                    6.981693469975161,
                    2.8760286416242975
                ],
                "label": "O",
                "properties": {}
            },
            {
                "species": [
                    {
                        "element": "O",
                        "occu": 1
                    }
                ],
                "abc": [
                    0.4022676,
                    0.40888167,
                    0.76041681
                ],
                "xyz": [
                    -1.7626830751004121,
                    4.309332668790249,
                    4.75175423934418
                ],
                "label": "O",
                "properties": {}
            },
            {
                "species": [
                    {
                        "element": "O",
                        "occu": 1
                    }
                ],
                "abc": [
                    0.5977324,
                    0.90888167,
                    0.73958319
                ],
                "xyz": [
                    -0.680780629899588,
                    9.578990108790249,
                    4.621607530655821
                ],
                "label": "O",
                "properties": {}
            },
            {
                "species": [
                    {
                        "element": "O",
                        "occu": 1
                    }
                ],
                "abc": [
                    0.5977324,
                    0.59111833,
                    0.23958319
                ],
                "xyz": [
                    1.8022775451004116,
                    6.22998221120975,
                    1.4972183506558203
                ],
                "label": "O",
                "properties": {}
            },
            {
                "species": [
                    {
                        "element": "O",
                        "occu": 1
                    }
                ],
                "abc": [
                    0.4022676,
                    0.09111833,
                    0.26041681
                ],
                "xyz": [
                    0.7203750998995884,
                    0.9603247712097503,
                    1.6273650593441797
                ],
                "label": "O",
                "properties": {}
            },
            {
                "species": [
                    {
                        "element": "O",
                        "occu": 1
                    }
                ],
                "abc": [
                    0.95177734,
                    0.55943999,
                    0.74512809
                ],
                "xyz": [
                    1.063929338475547,
                    5.8961142110740505,
                    4.656325147932881
                ],
                "label": "O",
                "properties": {}
            },
            {
                "species": [
                    {
                        "element": "O",
                        "occu": 1
                    }
                ],
                "abc": [
                    0.04822266,
                    0.05943999,
                    0.75487191
                ],
                "xyz": [
                    -3.507393043475547,
                    0.6264567710740512,
                    4.717036622067119
                ],
                "label": "O",
                "properties": {}
            },
            {
                "species": [
                    {
                        "element": "O",
                        "occu": 1
                    }
                ],
                "abc": [
                    0.04822266,
                    0.44056001,
                    0.25487191
                ],
                "xyz": [
                    -1.0243348684755471,
                    4.643200668925949,
                    1.5926474420671193
                ],
                "label": "O",
                "properties": {}
            },
            {
                "species": [
                    {
                        "element": "O",
                        "occu": 1
                    }
                ],
                "abc": [
                    0.95177734,
                    0.94056001,
                    0.24512809
                ],
                "xyz": [
                    3.546987513475547,
                    9.912858108925947,
                    1.5319359679328806
                ],
                "label": "O",
                "properties": {}
            }
        ]
    },
    "spacegroup": {
        "source": "spglib",
        "symbol": "P2_1/c",
        "number": 14,
        "point_group": "2/m",
        "crystal_system": "monoclinic",
        "hall": "-P 2ybc"
    },
    "dielectric": {
        "epsilon_ionic": [
            [
                4.83017035,
                -0.0,
                -0.16868289
            ],
            [
                -0.0,
                3.1405187,
                0.0
            ],
            [
                -0.16868289,
                0.0,
                2.91953439
            ]
        ],
        "epsilon_ionic_avg": 3.6300744799999998,
        "epsilon_ionic_eig": [
            4.844948427248989,
            2.9047563127510116,
            3.1405187
        ],
        "epsilon_electronic": [
            [
                2.93375851,
                0.0,
                0.01872811
            ],
            [
                0.0,
                2.91582912,
                0.0
            ],
            [
                0.01872825,
                0.0,
                2.83733534
            ]
        ],
        "epsilon_electronic_avg": 2.89564099,
        "epsilon_electronic_eig": [
            2.937268309884008,
            2.833825540115992,
            2.91582912
        ]
    },
    "phonon": {
        "lowest_freq": -0.06181763145512759,
        "frequency": [
            -0.06181763145512759,
            -0.038269767089981976,
            -0.02415244284150716,
            2.762341566733807,
            2.857608193641463,
            3.1101802626821033,
            3.175501037550567,
            3.428305107341156,
            3.7402251577582577,
            4.100150288074348,
            4.673900087826814,
            4.961092806453215,
            5.090227426138373,
            5.107687466433194,
            5.430758499176417,
            5.596004619351658,
            5.837933334468152,
            6.029139115549588,
            6.159308625373934,
            6.5901489135518805,
            6.670095166910936,
            6.829258255581753,
            7.038452165031093,
            7.310937206267243,
            7.618462508513618,
            7.689721659996414,
            7.850330818605313,
            8.196433178257797,
            8.606602731170117,
            8.863582092085945,
            8.867617136887437,
            8.910075910940071,
            9.768007181718342,
            9.798138186427217,
            10.106092147790557,
            10.28443716550129,
            10.601922712968017,
            10.770067734260476,
            10.816089655359137,
            11.091629690320385,
            11.124382348484465,
            11.244152539249788,
            11.338543191510848,
            11.610784700863846,
            11.911603465177725,
            12.309225429979096,
            12.442748240032925,
            12.483931784084191,
            12.50667670648453,
            12.801039215988588,
            12.980567030827496,
            13.248332805679635,
            13.31729348170919,
            13.408097734136083,
            13.437589069869654,
            13.512535506455174,
            13.740571786774005,
            14.004051470129324,
            14.058996728258606,
            14.117321100013498,
            14.256237208380194,
            14.39534251960699,
            14.477028514603493,
            14.683571450944507,
            14.734652235266854,
            14.967780929283224,
            15.441089048060999,
            15.659354451240796,
            15.76406679442137,
            15.812317508394107,
            15.973654033060646,
            16.001562619187624,
            16.106409741653753,
            16.112096821598612,
            16.14957325525109,
            16.868002150292813,
            17.361365593620256,
            17.493813097486726,
            18.01616091269335,
            18.41969021255199,
            24.529076640015436,
            24.56484308014144,
            24.691581338684944,
            24.839009850386056,
            25.939744769212123,
            25.951292809532664,
            26.06220907360672,
            26.124872201235778,
            26.418291406851043,
            26.57126746853215,
            26.6039350124447,
            26.781650757116278,
            26.82686712561894,
            27.46334995904603,
            27.77538004632091,
            30.004383017244336
        ]
    },
    "born_effective_charge": {
        "avg_abs_trace": 1.7258566666666668,
        "tensors": [
            [
                [
                    1.03875,
                    0.0107,
                    -0.02319
                ],
                [
                    0.01652,
                    1.01972,
                    -0.03537
                ],
                [
                    0.00563,
                    0.02177,
                    1.05194
                ]
            ],
            [
                [
                    1.05965,
                    0.07498,
                    0.03798
                ],
                [
                    0.01892,
                    0.97296,
                    -0.06177
                ],
                [
                    0.01961,
                    -0.08538,
                    1.1155
                ]
            ],
            [
                [
                    1.05965,
                    -0.07498,
                    0.03799
                ],
                [
                    -0.01892,
                    0.97296,
                    0.06177
                ],
                [
                    0.0196,
                    0.08538,
                    1.11549
                ]
            ],
            [
                [
                    1.05965,
                    0.07498,
                    0.03799
                ],
                [
                    0.01892,
                    0.97297,
                    -0.06176
                ],
                [
                    0.0196,
                    -0.08538,
                    1.11549
                ]
            ],
            [
                [
                    1.05965,
                    -0.07498,
                    0.03798
                ],
                [
                    -0.01892,
                    0.97297,
                    0.06176
                ],
                [
                    0.01961,
                    0.08538,
                    1.1155
                ]
            ],
            [
                [
                    1.03875,
                    -0.0107,
                    -0.0232
                ],
                [
                    -0.01652,
                    1.01972,
                    0.03537
                ],
                [
                    0.00563,
                    -0.02178,
                    1.05194
                ]
            ],
            [
                [
                    1.03875,
                    0.0107,
                    -0.0232
                ],
                [
                    0.01653,
                    1.01972,
                    -0.03538
                ],
                [
                    0.00563,
                    0.02178,
                    1.05194
                ]
            ],
            [
                [
                    1.03875,
                    -0.0107,
                    -0.02319
                ],
                [
                    -0.01653,
                    1.01972,
                    0.03538
                ],
                [
                    0.00563,
                    -0.02177,
                    1.05194
                ]
            ],
            [
                [
                    2.01053,
                    -0.05917,
                    0.10868
                ],
                [
                    0.08052,
                    2.04622,
                    0.09783
                ],
                [
                    -0.05403,
                    -0.15486,
                    1.758
                ]
            ],
            [
                [
                    2.01053,
                    0.05917,
                    0.10871
                ],
                [
                    -0.08052,
                    2.04622,
                    -0.09783
                ],
                [
                    -0.054,
                    0.15485,
                    1.7581
                ]
            ],
            [
                [
                    2.01053,
                    -0.05917,
                    0.10871
                ],
                [
                    0.08053,
                    2.0461,
                    0.09782
                ],
                [
                    -0.054,
                    -0.15485,
                    1.7581
                ]
            ],
            [
                [
                    2.01053,
                    0.05917,
                    0.10868
                ],
                [
                    -0.08053,
                    2.0461,
                    -0.09782
                ],
                [
                    -0.05403,
                    0.15486,
                    1.758
                ]
            ],
            [
                [
                    2.91217,
                    -0.1036,
                    -0.23047
                ],
                [
                    0.06494,
                    2.92278,
                    -0.24618
                ],
                [
                    0.17153,
                    -0.16642,
                    2.80204
                ]
            ],
            [
                [
                    2.91218,
                    0.1036,
                    -0.23052
                ],
                [
                    -0.06494,
                    2.92278,
                    0.24618
                ],
                [
                    0.17146,
                    0.16645,
                    2.8021
                ]
            ],
            [
                [
                    2.91218,
                    -0.1036,
                    -0.23052
                ],
                [
                    0.06493,
                    2.92278,
                    -0.24619
                ],
                [
                    0.17146,
                    -0.16645,
                    2.8021
                ]
            ],
            [
                [
                    2.91217,
                    0.1036,
                    -0.23047
                ],
                [
                    -0.06493,
                    2.92278,
                    0.24619
                ],
                [
                    0.17153,
                    0.16642,
                    2.80204
                ]
            ],
            [
                [
                    -1.87415,
                    -0.17534,
                    0.37159
                ],
                [
                    -0.0832,
                    -1.49458,
                    0.17372
                ],
                [
                    0.3161,
                    0.26818,
                    -1.74042
                ]
            ],
            [
                [
                    -1.87417,
                    0.17537,
                    0.37165
                ],
                [
                    0.0832,
                    -1.49458,
                    -0.17372
                ],
                [
                    0.31614,
                    -0.26811,
                    -1.7404
                ]
            ],
            [
                [
                    -1.87417,
                    -0.17537,
                    0.37165
                ],
                [
                    -0.0832,
                    -1.49459,
                    0.1737
                ],
                [
                    0.31614,
                    0.26811,
                    -1.7404
                ]
            ],
            [
                [
                    -1.43775,
                    0.03812,
                    -0.17235
                ],
                [
                    0.01976,
                    -1.92531,
                    0.43097
                ],
                [
                    -0.23793,
                    0.44054,
                    -1.86924
                ]
            ],
            [
                [
                    -1.87415,
                    0.17534,
                    0.37159
                ],
                [
                    0.0832,
                    -1.49459,
                    -0.1737
                ],
                [
                    0.3161,
                    -0.26818,
                    -1.74042
                ]
            ],
            [
                [
                    -1.43775,
                    -0.03812,
                    -0.17235
                ],
                [
                    -0.01983,
                    -1.92527,
                    -0.43096
                ],
                [
                    -0.23793,
                    -0.44054,
                    -1.86924
                ]
            ],
            [
                [
                    -1.43775,
                    0.03817,
                    -0.17234
                ],
                [
                    0.01983,
                    -1.92527,
                    0.43096
                ],
                [
                    -0.23785,
                    0.44056,
                    -1.86906
                ]
            ],
            [
                [
                    -1.43775,
                    -0.03817,
                    -0.17234
                ],
                [
                    -0.01976,
                    -1.92531,
                    -0.43097
                ],
                [
                    -0.23785,
                    -0.44056,
                    -1.86906
                ]
            ],
            [
                [
                    -2.28885,
                    0.04229,
                    -0.14661
                ],
                [
                    0.07631,
                    -1.32459,
                    0.04268
                ],
                [
                    -0.22638,
                    0.10946,
                    -1.54692
                ]
            ],
            [
                [
                    -2.28893,
                    -0.04228,
                    -0.14661
                ],
                [
                    -0.07631,
                    -1.32459,
                    -0.04268
                ],
                [
                    -0.22624,
                    -0.10948,
                    -1.54692
                ]
            ],
            [
                [
                    -2.28893,
                    0.04228,
                    -0.14661
                ],
                [
                    0.07633,
                    -1.3246,
                    0.04269
                ],
                [
                    -0.22624,
                    0.10948,
                    -1.54692
                ]
            ],
            [
                [
                    -2.28885,
                    -0.04229,
                    -0.14661
                ],
                [
                    -0.07633,
                    -1.3246,
                    -0.04269
                ],
                [
                    -0.22638,
                    -0.10946,
                    -1.54692
                ]
            ],
            [
                [
                    -1.42029,
                    0.25084,
                    0.05432
                ],
                [
                    0.28816,
                    -2.21716,
                    -0.17263
                ],
                [
                    0.00531,
                    -0.15332,
                    -1.57108
                ]
            ],
            [
                [
                    -1.42031,
                    -0.25084,
                    0.05436
                ],
                [
                    -0.28816,
                    -2.21716,
                    0.17263
                ],
                [
                    0.00543,
                    0.15342,
                    -1.57107
                ]
            ],
            [
                [
                    -1.42031,
                    0.25084,
                    0.05436
                ],
                [
                    0.28817,
                    -2.21714,
                    -0.17264
                ],
                [
                    0.00543,
                    -0.15342,
                    -1.57107
                ]
            ],
            [
                [
                    -1.42029,
                    -0.25084,
                    0.05432
                ],
                [
                    -0.28817,
                    -2.21714,
                    0.17264
                ],
                [
                    0.00531,
                    0.15332,
                    -1.57108
                ]
            ]
        ]
    },
    "band_gap": 4.2261999999999995,
    "is_direct": false,
    "formula": "Li2ZnSiO4"
}