{
    "mp_id": "mp-13055",
    "nelements": 4,
    "nsites": 10,
    "elements": [
        "Ba",
        "La",
        "O",
        "Ta"
    ],
    "structure": {
        "@module": "pymatgen.core.structure",
        "@class": "Structure",
        "charge": null,
        "lattice": {
            "matrix": [
                [
                    5.25156187,
                    -3.03672148,
                    0.00033575
                ],
                [
                    5.25156187,
                    3.03672148,
                    0.00033575
                ],
                [
                    -3.54233568,
                    0.0,
                    5.03423939
                ]
            ],
            "a": 6.066348121749967,
            "b": 6.066348121749967,
            "c": 6.155624119910883,
            "alpha": 119.87610244386907,
            "beta": 119.87610244386907,
            "gamma": 60.07739125375891,
            "volume": 160.57459817428767
        },
        "sites": [
            {
                "species": [
                    {
                        "element": "Ba",
                        "occu": 1
                    }
                ],
                "abc": [
                    0.7522462,
                    0.7522462,
                    0.25943535
                ],
                "xyz": [
                    6.981927824586499,
                    0.0,
                    1.3065647914517364
                ],
                "label": "Ba",
                "properties": {}
            },
            {
                "species": [
                    {
                        "element": "Ba",
                        "occu": 1
                    }
                ],
                "abc": [
                    0.2477538,
                    0.2477538,
                    0.74056465
                ],
                "xyz": [
                    -0.02113976458650013,
                    0.0,
                    3.7283460985482635
                ],
                "label": "Ba",
                "properties": {}
            },
            {
                "species": [
                    {
                        "element": "La",
                        "occu": 1
                    }
                ],
                "abc": [
                    0.0,
                    0.0,
                    0.0
                ],
                "xyz": [
                    0.0,
                    0.0,
                    0.0
                ],
                "label": "La",
                "properties": {}
            },
            {
                "species": [
                    {
                        "element": "Ta",
                        "occu": 1
                    }
                ],
                "abc": [
                    0.5,
                    0.5,
                    0.5
                ],
                "xyz": [
                    3.48039403,
                    0.0,
                    2.517455445
                ],
                "label": "Ta",
                "properties": {}
            },
            {
                "species": [
                    {
                        "element": "O",
                        "occu": 1
                    }
                ],
                "abc": [
                    0.3069044,
                    0.77251575,
                    0.31323029
                ],
                "xyz": [
                    4.559074869125933,
                    1.413931987876798,
                    1.5772386793744857
                ],
                "label": "O",
                "properties": {}
            },
            {
                "species": [
                    {
                        "element": "O",
                        "occu": 1
                    }
                ],
                "abc": [
                    0.22748425,
                    0.6930956,
                    0.68676971
                ],
                "xyz": [
                    2.401713190874067,
                    1.4139319878767982,
                    3.4576722106255144
                ],
                "label": "O",
                "properties": {}
            },
            {
                "species": [
                    {
                        "element": "O",
                        "occu": 1
                    }
                ],
                "abc": [
                    0.6930956,
                    0.22748425,
                    0.68676971
                ],
                "xyz": [
                    2.401713190874067,
                    -1.4139319878767982,
                    3.4576722106255144
                ],
                "label": "O",
                "properties": {}
            },
            {
                "species": [
                    {
                        "element": "O",
                        "occu": 1
                    }
                ],
                "abc": [
                    0.77251575,
                    0.3069044,
                    0.31323029
                ],
                "xyz": [
                    4.559074869125933,
                    -1.413931987876798,
                    1.5772386793744857
                ],
                "label": "O",
                "properties": {}
            },
            {
                "species": [
                    {
                        "element": "O",
                        "occu": 1
                    }
                ],
                "abc": [
                    0.72791793,
                    0.72791793,
                    0.79944085
                ],
                "xyz": [
                    4.8135242443501305,
                    0.0,
                    4.025065413935076
                ],
                "label": "O",
                "properties": {}
            },
            {
                "species": [
                    {
                        "element": "O",
                        "occu": 1
                    }
                ],
                "abc": [
                    0.27208207,
                    0.27208207,
                    0.20055915
                ],
                "xyz": [
                    2.1472638156498696,
                    0.0,
                    1.0098454760649234
                ],
                "label": "O",
                "properties": {}
            }
        ]
    },
    "spacegroup": {
        "source": "spglib",
        "symbol": "C2/m",
        "number": 12,
        "point_group": "2/m",
        "crystal_system": "monoclinic",
        "hall": "-C 2y"
    },
    "dielectric": {
        "epsilon_ionic": [
            [
                23.53380776,
                -0.0,
                1.65096081
            ],
            [
                -0.0,
                31.4834704,
                0.0
            ],
            [
                1.65096081,
                0.0,
                20.36219308
            ]
        ],
        "epsilon_ionic_avg": 25.126490413333332,
        "epsilon_ionic_eig": [
            24.23720476119668,
            19.65879607880332,
            31.4834704
        ],
        "epsilon_electronic": [
            [
                4.6078885,
                0.0,
                -0.03418015
            ],
            [
                0.0,
                4.59748028,
                0.0
            ],
            [
                -0.03419422,
                0.0,
                4.66945109
            ]
        ],
        "epsilon_electronic_avg": 4.624939956666666,
        "epsilon_electronic_eig": [
            4.592667059313847,
            4.684672530686153,
            4.59748028
        ]
    },
    "phonon": {
        "lowest_freq": -0.03143003206588704,
        "frequency": [
            -0.03143003206588704,
            -0.025115993483756576,
            -0.015294400093816288,
            1.9742969609510903,
            2.2510245628374976,
            2.706485111579776,
            2.9863882835798785,
            3.227428889149597,
            3.3141022492557655,
            3.3170294309517208,
            3.656192257622799,
            4.714774234975264,
            4.744740347388505,
            5.197973119505209,
            5.491423210159381,
            6.135726057076657,
            6.325039304068126,
            7.515838554469119,
            7.749383285626039,
            8.021545165592672,
            8.513493212695197,
            10.521483630118482,
            10.711076918738955,
            11.253181109159407,
            14.520021590005491,
            14.676291331356664,
            15.093076198111346,
            15.663278257366338,
            15.822002173271636,
            22.777255872914605
        ]
    },
    "born_effective_charge": {
        "avg_abs_trace": 3.3550926666666667,
        "tensors": [
            [
                [
                    2.63305,
                    0.0,
                    -0.09674
                ],
                [
                    3e-05,
                    2.6678,
                    0.00017
                ],
                [
                    -0.12925,
                    0.0,
                    2.74239
                ]
            ],
            [
                [
                    2.63298,
                    0.0,
                    -0.09655
                ],
                [
                    -3e-05,
                    2.6678,
                    -0.00017
                ],
                [
                    -0.1291,
                    0.0,
                    2.74201
                ]
            ],
            [
                [
                    4.63834,
                    0.0,
                    -0.33475
                ],
                [
                    0.0,
                    4.53564,
                    0.0
                ],
                [
                    0.29988,
                    0.0,
                    4.94545
                ]
            ],
            [
                [
                    6.83862,
                    0.0,
                    0.14022
                ],
                [
                    0.0,
                    6.67133,
                    0.0
                ],
                [
                    -0.07824,
                    0.0,
                    6.61096
                ]
            ],
            [
                [
                    -2.4578,
                    -0.88946,
                    0.71687
                ],
                [
                    -0.86988,
                    -3.2526,
                    1.04045
                ],
                [
                    0.65961,
                    0.99353,
                    -2.67802
                ]
            ],
            [
                [
                    -2.45801,
                    0.88956,
                    0.7166
                ],
                [
                    0.86988,
                    -3.2526,
                    -1.04045
                ],
                [
                    0.66007,
                    -0.99365,
                    -2.67769
                ]
            ],
            [
                [
                    -2.45801,
                    -0.88956,
                    0.7166
                ],
                [
                    -0.87005,
                    -3.25256,
                    1.04056
                ],
                [
                    0.66007,
                    0.99365,
                    -2.67769
                ]
            ],
            [
                [
                    -2.4578,
                    0.88946,
                    0.71687
                ],
                [
                    0.87005,
                    -3.25256,
                    -1.04056
                ],
                [
                    0.65961,
                    -0.99353,
                    -2.67802
                ]
            ],
            [
                [
                    -3.45575,
                    0.0,
                    -1.23958
                ],
                [
                    -5e-05,
                    -1.76613,
                    -0.00012
                ],
                [
                    -1.30108,
                    0.0,
                    -3.16473
                ]
            ],
            [
                [
                    -3.45562,
                    0.0,
                    -1.23954
                ],
                [
                    5e-05,
                    -1.76613,
                    0.00012
                ],
                [
                    -1.30159,
                    0.0,
                    -3.16469
                ]
            ]
        ]
    },
    "band_gap": 3.8143000000000002,
    "is_direct": false,
    "formula": "Ba2LaTaO6"
}