{
    "mp_id": "mp-19133",
    "nelements": 3,
    "nsites": 12,
    "elements": [
        "O",
        "V",
        "Y"
    ],
    "structure": {
        "@module": "pymatgen.core.structure",
        "@class": "Structure",
        "charge": null,
        "lattice": {
            "matrix": [
                [
                    -3.56000175,
                    3.56000175,
                    3.1323133
                ],
                [
                    3.56000175,
                    -3.56000175,
                    3.1323133
                ],
                [
                    3.56000175,
                    3.56000175,
                    -3.1323133
                ]
            ],
            "a": 5.9294697511129115,
            "b": 5.9294697511129115,
            "c": 5.9294697511129115,
            "alpha": 106.20415212781008,
            "beta": 106.20415212781008,
            "gamma": 116.22380525694494,
            "volume": 158.79089947005326
        },
        "sites": [
            {
                "species": [
                    {
                        "element": "Y",
                        "occu": 1
                    }
                ],
                "abc": [
                    0.0,
                    0.0,
                    0.0
                ],
                "xyz": [
                    0.0,
                    0.0,
                    0.0
                ],
                "label": "Y",
                "properties": {}
            },
            {
                "species": [
                    {
                        "element": "Y",
                        "occu": 1
                    }
                ],
                "abc": [
                    0.75,
                    0.25,
                    0.5
                ],
                "xyz": [
                    -2.220446049250313e-16,
                    3.5600017500000005,
                    1.56615665
                ],
                "label": "Y",
                "properties": {}
            },
            {
                "species": [
                    {
                        "element": "V",
                        "occu": 1
                    }
                ],
                "abc": [
                    0.5,
                    0.5,
                    0.0
                ],
                "xyz": [
                    0.0,
                    0.0,
                    3.1323133
                ],
                "label": "V",
                "properties": {}
            },
            {
                "species": [
                    {
                        "element": "V",
                        "occu": 1
                    }
                ],
                "abc": [
                    0.25,
                    0.75,
                    0.5
                ],
                "xyz": [
                    3.5600017500000005,
                    -2.220446049250313e-16,
                    1.56615665
                ],
                "label": "V",
                "properties": {}
            },
            {
                "species": [
                    {
                        "element": "O",
                        "occu": 1
                    }
                ],
                "abc": [
                    0.07327336,
                    0.75839226,
                    0.68511889
                ],
                "xyz": [
                    4.878048930316133,
                    -3.560001760050113e-08,
                    0.459030271450509
                ],
                "label": "O",
                "properties": {}
            },
            {
                "species": [
                    {
                        "element": "O",
                        "occu": 1
                    }
                ],
                "abc": [
                    0.50839226,
                    0.32327336,
                    0.18511889
                ],
                "xyz": [
                    -3.560001760050113e-08,
                    1.3180471803161327,
                    2.025186921450509
                ],
                "label": "O",
                "properties": {}
            },
            {
                "species": [
                    {
                        "element": "O",
                        "occu": 1
                    }
                ],
                "abc": [
                    0.13815547,
                    0.32327336,
                    0.81488111
                ],
                "xyz": [
                    3.55999818999825,
                    2.241958165285635,
                    -1.1071232775593238
                ],
                "label": "O",
                "properties": {}
            },
            {
                "species": [
                    {
                        "element": "O",
                        "occu": 1
                    }
                ],
                "abc": [
                    0.07327336,
                    0.38815547,
                    0.31488111
                ],
                "xyz": [
                    2.2419581652856353,
                    -3.560001750058106e-06,
                    0.459033372440676
                ],
                "label": "O",
                "properties": {}
            },
            {
                "species": [
                    {
                        "element": "O",
                        "occu": 1
                    }
                ],
                "abc": [
                    0.61184453,
                    0.92672664,
                    0.68511889
                ],
                "xyz": [
                    3.56000531000175,
                    1.3180435847143652,
                    2.6732799275593244
                ],
                "label": "O",
                "properties": {}
            },
            {
                "species": [
                    {
                        "element": "O",
                        "occu": 1
                    }
                ],
                "abc": [
                    0.67672664,
                    0.86184453,
                    0.18511889
                ],
                "xyz": [
                    1.318043584714365,
                    3.560001750058106e-06,
                    4.239436577559324
                ],
                "label": "O",
                "properties": {}
            },
            {
                "species": [
                    {
                        "element": "O",
                        "occu": 1
                    }
                ],
                "abc": [
                    0.67672664,
                    0.49160774,
                    0.81488111
                ],
                "xyz": [
                    2.241954569683867,
                    3.5600017856000177,
                    1.1071263785494914
                ],
                "label": "O",
                "properties": {}
            },
            {
                "species": [
                    {
                        "element": "O",
                        "occu": 1
                    }
                ],
                "abc": [
                    0.24160774,
                    0.92672664,
                    0.31488111
                ],
                "xyz": [
                    3.5600017856000177,
                    -1.3180471803161327,
                    2.673283028549491
                ],
                "label": "O",
                "properties": {}
            }
        ]
    },
    "spacegroup": {
        "source": "spglib",
        "symbol": "I4_1/amd",
        "number": 141,
        "point_group": "4/mmm",
        "crystal_system": "tetragonal",
        "hall": "I 4bw 2bw -1bw"
    },
    "dielectric": {
        "epsilon_ionic": [
            [
                5.71871973,
                0.0,
                -0.0
            ],
            [
                0.0,
                5.71869727,
                -0.0
            ],
            [
                -0.0,
                -0.0,
                10.44369514
            ]
        ],
        "epsilon_ionic_avg": 7.293704046666666,
        "epsilon_ionic_eig": [
            5.71871973,
            5.71869727,
            10.44369514
        ],
        "epsilon_electronic": [
            [
                4.02611979,
                0.0,
                0.0
            ],
            [
                0.0,
                4.02611979,
                0.0
            ],
            [
                0.0,
                0.0,
                4.9502943
            ]
        ],
        "epsilon_electronic_avg": 4.334177960000001,
        "epsilon_electronic_eig": [
            4.02611979,
            4.02611979,
            4.9502943
        ]
    },
    "phonon": {
        "lowest_freq": -0.04827202263185584,
        "frequency": [
            -0.04827202263185584,
            -0.03022333608933126,
            -0.03022333608933126,
            2.2502893666455837,
            3.9203090424758615,
            3.9203090424758615,
            4.710768281947493,
            4.74701533551221,
            4.74701533551221,
            4.830594384731608,
            5.605409759870927,
            5.605409759870927,
            6.933707668545584,
            7.238016501907539,
            7.496505811188097,
            7.496505811188097,
            7.53201334758029,
            7.53201334758029,
            7.857757021636153,
            8.64576169844349,
            8.64576169844349,
            9.65670839957075,
            10.859031021139566,
            10.859031021139566,
            10.961180459852278,
            12.989984884322588,
            13.02145763798928,
            13.86599817586375,
            23.344298169180675,
            23.344298169180675,
            24.607388840853428,
            24.905794260975416,
            24.974708132238256,
            24.974708132238256,
            25.47490965998289,
            25.95838394153307
        ]
    },
    "born_effective_charge": {
        "avg_abs_trace": 2.724382777777777,
        "tensors": [
            [
                [
                    4.1851,
                    -0.0,
                    0.0001
                ],
                [
                    0.0,
                    4.18508,
                    -0.00015
                ],
                [
                    -0.0,
                    0.0,
                    4.84424
                ]
            ],
            [
                [
                    4.1851,
                    -0.0,
                    -0.0001
                ],
                [
                    0.0,
                    4.18508,
                    0.00015
                ],
                [
                    -0.0,
                    0.0,
                    4.84424
                ]
            ],
            [
                [
                    3.31163,
                    -0.0,
                    9e-05
                ],
                [
                    0.0,
                    3.31164,
                    -2e-05
                ],
                [
                    -0.0,
                    0.0,
                    4.68175
                ]
            ],
            [
                [
                    3.31163,
                    -0.0,
                    -9e-05
                ],
                [
                    0.0,
                    3.31164,
                    2e-05
                ],
                [
                    -0.0,
                    0.0,
                    4.68175
                ]
            ],
            [
                [
                    -2.98278,
                    0.0,
                    1.21026
                ],
                [
                    -4e-05,
                    -0.76562,
                    3e-05
                ],
                [
                    1.16123,
                    -0.0,
                    -2.3815
                ]
            ],
            [
                [
                    -0.76562,
                    0.00014,
                    -9e-05
                ],
                [
                    0.0,
                    -2.98261,
                    1.21027
                ],
                [
                    -0.0,
                    1.16123,
                    -2.3815
                ]
            ],
            [
                [
                    -0.76562,
                    -0.00014,
                    -9e-05
                ],
                [
                    0.0,
                    -2.98287,
                    -1.2102
                ],
                [
                    -0.0,
                    -1.16123,
                    -2.3815
                ]
            ],
            [
                [
                    -2.98271,
                    -0.0,
                    -1.21019
                ],
                [
                    4e-05,
                    -0.76562,
                    3e-05
                ],
                [
                    -1.16123,
                    0.0,
                    -2.3815
                ]
            ],
            [
                [
                    -0.76562,
                    0.00014,
                    9e-05
                ],
                [
                    0.0,
                    -2.98261,
                    -1.21027
                ],
                [
                    -0.0,
                    -1.16124,
                    -2.3815
                ]
            ],
            [
                [
                    -2.98278,
                    -0.0,
                    -1.21026
                ],
                [
                    -4e-05,
                    -0.76562,
                    -3e-05
                ],
                [
                    -1.16124,
                    0.0,
                    -2.3815
                ]
            ],
            [
                [
                    -2.98271,
                    0.0,
                    1.21019
                ],
                [
                    4e-05,
                    -0.76562,
                    -3e-05
                ],
                [
                    1.16124,
                    0.0,
                    -2.3815
                ]
            ],
            [
                [
                    -0.76562,
                    -0.00014,
                    9e-05
                ],
                [
                    -0.0,
                    -2.98287,
                    1.2102
                ],
                [
                    -0.0,
                    1.16124,
                    -2.3815
                ]
            ]
        ]
    },
    "band_gap": 3.0449,
    "is_direct": false,
    "formula": "YVO4"
}