{
    "mp_id": "mp-1211745",
    "nelements": 5,
    "nsites": 14,
    "elements": [
        "K",
        "O",
        "Rb",
        "Sc",
        "V"
    ],
    "structure": {
        "@module": "pymatgen.core.structure",
        "@class": "Structure",
        "charge": null,
        "lattice": {
            "matrix": [
                [
                    5.77635748,
                    -0.0,
                    0.0
                ],
                [
                    -2.88817824,
                    5.002472,
                    0.0
                ],
                [
                    0.0,
                    0.0,
                    7.54896941
                ]
            ],
            "a": 5.77635748,
            "b": 5.776356953720355,
            "c": 7.54896941,
            "alpha": 90.0,
            "beta": 90.0,
            "gamma": 119.99999728712352,
            "volume": 218.1355224982321
        },
        "sites": [
            {
                "species": [
                    {
                        "element": "K",
                        "occu": 1
                    }
                ],
                "abc": [
                    0.333333,
                    0.666667,
                    0.68889562
                ],
                "xyz": [
                    -2.554845240032577e-06,
                    3.3349830008240002,
                    5.200451962062984
                ],
                "label": "K",
                "properties": {}
            },
            {
                "species": [
                    {
                        "element": "K",
                        "occu": 1
                    }
                ],
                "abc": [
                    0.666667,
                    0.333333,
                    0.31110438
                ],
                "xyz": [
                    2.88818179484524,
                    1.667488999176,
                    2.3485174479370157
                ],
                "label": "K",
                "properties": {}
            },
            {
                "species": [
                    {
                        "element": "Rb",
                        "occu": 1
                    }
                ],
                "abc": [
                    0.0,
                    0.0,
                    0.0
                ],
                "xyz": [
                    0.0,
                    0.0,
                    0.0
                ],
                "label": "Rb",
                "properties": {}
            },
            {
                "species": [
                    {
                        "element": "Sc",
                        "occu": 1
                    }
                ],
                "abc": [
                    0.0,
                    0.0,
                    0.5
                ],
                "xyz": [
                    0.0,
                    0.0,
                    3.774484705
                ],
                "label": "Sc",
                "properties": {}
            },
            {
                "species": [
                    {
                        "element": "V",
                        "occu": 1
                    }
                ],
                "abc": [
                    0.333333,
                    0.666667,
                    0.25711042
                ],
                "xyz": [
                    -2.554845240032577e-06,
                    3.3349830008240002,
                    1.9409186955722522
                ],
                "label": "V",
                "properties": {}
            },
            {
                "species": [
                    {
                        "element": "V",
                        "occu": 1
                    }
                ],
                "abc": [
                    0.666667,
                    0.333333,
                    0.74288958
                ],
                "xyz": [
                    2.88818179484524,
                    1.667488999176,
                    5.608050714427748
                ],
                "label": "V",
                "properties": {}
            },
            {
                "species": [
                    {
                        "element": "O",
                        "occu": 1
                    }
                ],
                "abc": [
                    0.333333,
                    0.666667,
                    0.03656527
                ],
                "xyz": [
                    -2.554845240032577e-06,
                    3.3349830008240002,
                    0.2760301046983907
                ],
                "label": "O",
                "properties": {}
            },
            {
                "species": [
                    {
                        "element": "O",
                        "occu": 1
                    }
                ],
                "abc": [
                    0.666667,
                    0.333333,
                    0.96343473
                ],
                "xyz": [
                    2.88818179484524,
                    1.667488999176,
                    7.272939305301609
                ],
                "label": "O",
                "properties": {}
            },
            {
                "species": [
                    {
                        "element": "O",
                        "occu": 1
                    }
                ],
                "abc": [
                    0.16928898,
                    0.83071102,
                    0.33722637
                ],
                "xyz": [
                    -1.4213678257876343,
                    4.15560861764144,
                    2.5457115513753417
                ],
                "label": "O",
                "properties": {}
            },
            {
                "species": [
                    {
                        "element": "O",
                        "occu": 1
                    }
                ],
                "abc": [
                    0.83071102,
                    0.16928898,
                    0.66277363
                ],
                "xyz": [
                    4.309547065787634,
                    0.8468633823585601,
                    5.003257858624658
                ],
                "label": "O",
                "properties": {}
            },
            {
                "species": [
                    {
                        "element": "O",
                        "occu": 1
                    }
                ],
                "abc": [
                    0.16928898,
                    0.33857896,
                    0.33722637
                ],
                "xyz": [
                    -2.7188892599561143e-06,
                    1.6937317671891199,
                    2.5457115513753417
                ],
                "label": "O",
                "properties": {}
            },
            {
                "species": [
                    {
                        "element": "O",
                        "occu": 1
                    }
                ],
                "abc": [
                    0.83071102,
                    0.66142104,
                    0.66277363
                ],
                "xyz": [
                    2.88818195888926,
                    3.30874023281088,
                    5.003257858624658
                ],
                "label": "O",
                "properties": {}
            },
            {
                "species": [
                    {
                        "element": "O",
                        "occu": 1
                    }
                ],
                "abc": [
                    0.66142104,
                    0.83071102,
                    0.33722637
                ],
                "xyz": [
                    1.4213628801411744,
                    4.15560861764144,
                    2.5457115513753417
                ],
                "label": "O",
                "properties": {}
            },
            {
                "species": [
                    {
                        "element": "O",
                        "occu": 1
                    }
                ],
                "abc": [
                    0.33857896,
                    0.16928898,
                    0.66277363
                ],
                "xyz": [
                    1.4668163598588255,
                    0.8468633823585601,
                    5.003257858624658
                ],
                "label": "O",
                "properties": {}
            }
        ]
    },
    "spacegroup": {
        "source": "spglib",
        "symbol": "P-3m1",
        "number": 164,
        "point_group": "-3m",
        "crystal_system": "trigonal",
        "hall": "-P 3 2\""
    },
    "dielectric": {
        "epsilon_ionic": [
            [
                10.36534702,
                4e-07,
                -0.0
            ],
            [
                4e-07,
                10.36804423,
                0.00011361
            ],
            [
                -0.0,
                0.00011361,
                4.82576532
            ]
        ],
        "epsilon_ionic_avg": 8.519718856666666,
        "epsilon_ionic_eig": [
            10.36534701994068,
            10.368044232388186,
            4.825765317671133
        ],
        "epsilon_electronic": [
            [
                3.711868,
                -3.7e-07,
                -0.0
            ],
            [
                -3.7e-07,
                3.71186815,
                0.0
            ],
            [
                0.0,
                -0.0,
                3.5177487
            ]
        ],
        "epsilon_electronic_avg": 3.6471616166666667,
        "epsilon_electronic_eig": [
            3.7118676974751663,
            3.7118684525248336,
            3.5177487
        ]
    },
    "phonon": {
        "lowest_freq": -0.20278036956597995,
        "frequency": [
            -0.20278036956597995,
            -0.20278034907680512,
            -0.02476247567918463,
            1.3043638305229022,
            1.3043639607458344,
            1.599203246707011,
            1.5992033536853367,
            2.880512523236192,
            3.2536385864046453,
            3.253638838043045,
            3.450086127821227,
            3.5495994656682424,
            4.037414885095877,
            4.0374152573788304,
            4.561956454937162,
            4.565975049247186,
            4.565975490839829,
            4.900111593067462,
            4.902678220952675,
            4.902678719455959,
            6.516851363394623,
            7.751366173576648,
            7.751366835705416,
            9.135938292046896,
            9.1359386398165,
            9.165331391703994,
            10.054141282577978,
            10.054141586433028,
            10.889067647532688,
            10.956548307512403,
            10.956548831710606,
            11.13167900542405,
            11.131679565285971,
            11.133040605176127,
            22.090979347919134,
            22.090980841470692,
            22.280380395615538,
            22.280381766777737,
            24.49726461450503,
            26.189921107724526,
            27.2346090389607,
            28.34835461662374
        ]
    },
    "born_effective_charge": {
        "avg_abs_trace": 2.3497259523809526,
        "tensors": [
            [
                [
                    1.14209,
                    6e-05,
                    0.0
                ],
                [
                    -0.0,
                    1.14219,
                    -5e-05
                ],
                [
                    0.0,
                    -0.0,
                    1.28873
                ]
            ],
            [
                [
                    1.14209,
                    -6e-05,
                    -0.0
                ],
                [
                    -0.0,
                    1.14224,
                    -5e-05
                ],
                [
                    0.0,
                    -0.0,
                    1.28881
                ]
            ],
            [
                [
                    1.2568,
                    0.0,
                    0.0
                ],
                [
                    0.0,
                    1.25726,
                    -7e-05
                ],
                [
                    0.0,
                    -0.0,
                    1.34168
                ]
            ],
            [
                [
                    5.95242,
                    0.0,
                    0.0
                ],
                [
                    -0.0,
                    5.95276,
                    0.00045
                ],
                [
                    0.0,
                    -0.0,
                    4.56454
                ]
            ],
            [
                [
                    3.71957,
                    -0.00027,
                    3e-05
                ],
                [
                    -0.0,
                    3.71951,
                    0.00026
                ],
                [
                    0.0,
                    -0.0,
                    3.49735
                ]
            ],
            [
                [
                    3.71957,
                    0.00027,
                    -3e-05
                ],
                [
                    -0.0,
                    3.71959,
                    0.00019
                ],
                [
                    0.0,
                    -0.0,
                    3.49702
                ]
            ],
            [
                [
                    -0.70968,
                    1e-05,
                    -5e-05
                ],
                [
                    0.0,
                    -0.70968,
                    -5e-05
                ],
                [
                    0.0,
                    -0.0,
                    -3.16219
                ]
            ],
            [
                [
                    -0.70968,
                    -1e-05,
                    5e-05
                ],
                [
                    0.0,
                    -0.70982,
                    3e-05
                ],
                [
                    0.0,
                    -0.0,
                    -3.1623
                ]
            ],
            [
                [
                    -3.3179,
                    1.26926,
                    1.25732
                ],
                [
                    1.26877,
                    -1.85309,
                    -0.72592
                ],
                [
                    1.00391,
                    -0.57961,
                    -1.52555
                ]
            ],
            [
                [
                    -3.31848,
                    1.26864,
                    1.25711
                ],
                [
                    1.26882,
                    -1.85299,
                    -0.7259
                ],
                [
                    1.00418,
                    -0.57976,
                    -1.52567
                ]
            ],
            [
                [
                    -1.12022,
                    -0.0001,
                    -0.00021
                ],
                [
                    0.0,
                    -4.0509,
                    1.45153
                ],
                [
                    -0.0,
                    1.15921,
                    -1.52555
                ]
            ],
            [
                [
                    -1.12022,
                    0.0001,
                    0.00021
                ],
                [
                    0.0,
                    -4.051,
                    1.45142
                ],
                [
                    -0.0,
                    1.15953,
                    -1.52567
                ]
            ],
            [
                [
                    -3.31848,
                    -1.26864,
                    -1.25711
                ],
                [
                    -1.26877,
                    -1.85309,
                    -0.72592
                ],
                [
                    -1.00391,
                    -0.57961,
                    -1.52555
                ]
            ],
            [
                [
                    -3.3179,
                    -1.26926,
                    -1.25732
                ],
                [
                    -1.26882,
                    -1.85299,
                    -0.7259
                ],
                [
                    -1.00418,
                    -0.57976,
                    -1.52567
                ]
            ]
        ]
    },
    "band_gap": 3.1372,
    "is_direct": false,
    "formula": "K2RbScV2O8"
}