{
    "mp_id": "mp-1222719",
    "nelements": 4,
    "nsites": 9,
    "elements": [
        "La",
        "O",
        "Sb",
        "Ti"
    ],
    "structure": {
        "@module": "pymatgen.core.structure",
        "@class": "Structure",
        "charge": null,
        "lattice": {
            "matrix": [
                [
                    5.25055625,
                    0.0,
                    0.0
                ],
                [
                    -2.62527812,
                    4.54711537,
                    0.0
                ],
                [
                    0.0,
                    0.0,
                    5.1504518
                ]
            ],
            "a": 5.25055625,
            "b": 5.250556484358679,
            "c": 5.1504518,
            "alpha": 90.0,
            "beta": 90.0,
            "gamma": 119.99999846048318,
            "volume": 122.96644455399097
        },
        "sites": [
            {
                "species": [
                    {
                        "element": "La",
                        "occu": 1
                    }
                ],
                "abc": [
                    0.0,
                    0.0,
                    0.0
                ],
                "xyz": [
                    0.0,
                    0.0,
                    0.0
                ],
                "label": "La",
                "properties": {}
            },
            {
                "species": [
                    {
                        "element": "Ti",
                        "occu": 1
                    }
                ],
                "abc": [
                    0.666667,
                    0.333333,
                    0.5
                ],
                "xyz": [
                    2.62528075194479,
                    1.51570360762821,
                    2.5752259
                ],
                "label": "Ti",
                "properties": {}
            },
            {
                "species": [
                    {
                        "element": "Sb",
                        "occu": 1
                    }
                ],
                "abc": [
                    0.333333,
                    0.666667,
                    0.5
                ],
                "xyz": [
                    -2.6219447901709714e-06,
                    3.03141176237179,
                    2.5752259
                ],
                "label": "Sb",
                "properties": {}
            },
            {
                "species": [
                    {
                        "element": "O",
                        "occu": 1
                    }
                ],
                "abc": [
                    0.62948562,
                    0.6289107,
                    0.7145937
                ],
                "xyz": [
                    1.6540841562322406,
                    2.859729510327459,
                    3.68048040843366
                ],
                "label": "O",
                "properties": {}
            },
            {
                "species": [
                    {
                        "element": "O",
                        "occu": 1
                    }
                ],
                "abc": [
                    0.99942508,
                    0.37051438,
                    0.7145937
                ],
                "xyz": [
                    4.274834305241384,
                    1.6847716321040205,
                    3.68048040843366
                ],
                "label": "O",
                "properties": {}
            },
            {
                "species": [
                    {
                        "element": "O",
                        "occu": 1
                    }
                ],
                "abc": [
                    0.3710893,
                    0.00057492,
                    0.7145937
                ],
                "xyz": [
                    1.9469159185263747,
                    0.0026142275685204002,
                    3.68048040843366
                ],
                "label": "O",
                "properties": {}
            },
            {
                "species": [
                    {
                        "element": "O",
                        "occu": 1
                    }
                ],
                "abc": [
                    0.3710893,
                    0.37051438,
                    0.2854063
                ],
                "xyz": [
                    0.9757219484637596,
                    1.6847716321040205,
                    1.46997139156634
                ],
                "label": "O",
                "properties": {}
            },
            {
                "species": [
                    {
                        "element": "O",
                        "occu": 1
                    }
                ],
                "abc": [
                    0.99942508,
                    0.6289107,
                    0.2854063
                ],
                "xyz": [
                    3.596472100056866,
                    2.859729510327459,
                    1.46997139156634
                ],
                "label": "O",
                "properties": {}
            },
            {
                "species": [
                    {
                        "element": "O",
                        "occu": 1
                    }
                ],
                "abc": [
                    0.62948562,
                    0.00057492,
                    0.2854063
                ],
                "xyz": [
                    3.3036403314793743,
                    0.0026142275685204002,
                    1.46997139156634
                ],
                "label": "O",
                "properties": {}
            }
        ]
    },
    "spacegroup": {
        "source": "spglib",
        "symbol": "P312",
        "number": 149,
        "point_group": "32",
        "crystal_system": "trigonal",
        "hall": "P 3 2"
    },
    "dielectric": {
        "epsilon_ionic": [
            [
                14.84664565,
                7.546e-05,
                9.005e-05
            ],
            [
                7.546e-05,
                14.8444184,
                0.0
            ],
            [
                9.005e-05,
                0.0,
                11.9118531
            ]
        ],
        "epsilon_ionic_avg": 13.867639049999994,
        "epsilon_ionic_eig": [
            11.911853097236941,
            14.846648206442811,
            14.844415846320235
        ],
        "epsilon_electronic": [
            [
                4.84983964,
                0.0,
                0.0
            ],
            [
                0.0,
                4.84983989,
                0.0
            ],
            [
                0.0,
                0.0,
                4.07386751
            ]
        ],
        "epsilon_electronic_avg": 4.591182346666667,
        "epsilon_electronic_eig": [
            4.84983964,
            4.84983989,
            4.07386751
        ]
    },
    "phonon": {
        "lowest_freq": -0.09358989401234856,
        "frequency": [
            -0.09358989401234856,
            -0.05026508836595482,
            -0.05026508715039875,
            3.61441939197186,
            3.7377015823872397,
            3.7377016804689576,
            4.726001701398832,
            6.416269012585544,
            6.416269069721583,
            7.765065840285914,
            8.560508898463574,
            8.560508998387593,
            9.480201724181475,
            10.824150241481599,
            10.824150444693965,
            12.812133378562665,
            12.812133388100504,
            14.483699474669148,
            14.483699542165752,
            15.170062572937644,
            15.170062597103673,
            15.647092306724787,
            16.70106991653316,
            18.498503446144188,
            18.498503512203623,
            18.99153165003718,
            19.752773895589907
        ]
    },
    "born_effective_charge": {
        "avg_abs_trace": 3.157764444444444,
        "tensors": [
            [
                [
                    4.27965,
                    8e-05,
                    5e-05
                ],
                [
                    0.0,
                    4.27887,
                    -0.0
                ],
                [
                    0.0,
                    -0.0,
                    5.3678
                ]
            ],
            [
                [
                    5.58619,
                    -6e-05,
                    -1e-05
                ],
                [
                    0.0,
                    5.58645,
                    -0.0
                ],
                [
                    0.0,
                    -0.0,
                    3.66837
                ]
            ],
            [
                [
                    5.39433,
                    -5e-05,
                    -0.0
                ],
                [
                    0.0,
                    5.39439,
                    -0.0
                ],
                [
                    0.0,
                    -0.0,
                    3.07377
                ]
            ],
            [
                [
                    -2.46416,
                    0.43391,
                    -0.14426
                ],
                [
                    0.51624,
                    -2.62269,
                    -0.92997
                ],
                [
                    -0.22678,
                    -0.98599,
                    -2.01833
                ]
            ],
            [
                [
                    -2.99439,
                    -0.21012,
                    -0.73326
                ],
                [
                    -0.12769,
                    -2.09218,
                    0.58991
                ],
                [
                    -0.7405,
                    0.68939,
                    -2.01833
                ]
            ],
            [
                [
                    -2.17156,
                    -0.34743,
                    0.87745
                ],
                [
                    -0.26484,
                    -2.91498,
                    0.34002
                ],
                [
                    0.96728,
                    0.2966,
                    -2.01833
                ]
            ],
            [
                [
                    -2.99449,
                    0.2102,
                    -0.73319
                ],
                [
                    0.12769,
                    -2.09218,
                    -0.58991
                ],
                [
                    -0.74044,
                    -0.68942,
                    -2.01832
                ]
            ],
            [
                [
                    -2.46404,
                    -0.43388,
                    -0.1442
                ],
                [
                    -0.51624,
                    -2.62269,
                    0.92997
                ],
                [
                    -0.22684,
                    0.98595,
                    -2.01832
                ]
            ],
            [
                [
                    -2.17153,
                    0.34736,
                    0.87743
                ],
                [
                    0.26484,
                    -2.91498,
                    -0.34002
                ],
                [
                    0.96728,
                    -0.29653,
                    -2.01832
                ]
            ]
        ]
    },
    "band_gap": 3.0790999999999995,
    "is_direct": false,
    "formula": "LaTiSbO6"
}