{
    "mp_id": "mp-1211443",
    "nelements": 4,
    "nsites": 24,
    "elements": [
        "K",
        "La",
        "Mo",
        "O"
    ],
    "structure": {
        "@module": "pymatgen.core.structure",
        "@class": "Structure",
        "charge": null,
        "lattice": {
            "matrix": [
                [
                    5.44380266,
                    -5.31446503,
                    -0.0016735
                ],
                [
                    5.44380266,
                    5.31446503,
                    -0.0016735
                ],
                [
                    -5.16056741,
                    0.0,
                    5.90123134
                ]
            ],
            "a": 7.60779394809811,
            "b": 7.60779394809811,
            "c": 7.839386922543898,
            "alpha": 118.1126667907902,
            "beta": 118.1126667907902,
            "gamma": 88.6224254470178,
            "volume": 341.3640605067514
        },
        "sites": [
            {
                "species": [
                    {
                        "element": "K",
                        "occu": 1
                    }
                ],
                "abc": [
                    0.19735465,
                    0.80264535,
                    0.75
                ],
                "xyz": [
                    1.5733771025000003,
                    3.216796258134221,
                    4.424250005
                ],
                "label": "K",
                "properties": {}
            },
            {
                "species": [
                    {
                        "element": "K",
                        "occu": 1
                    }
                ],
                "abc": [
                    0.80264535,
                    0.19735465,
                    0.25
                ],
                "xyz": [
                    4.1536608075000006,
                    -3.216796258134221,
                    1.4736343349999999
                ],
                "label": "K",
                "properties": {}
            },
            {
                "species": [
                    {
                        "element": "La",
                        "occu": 1
                    }
                ],
                "abc": [
                    0.77214556,
                    0.22785444,
                    0.75
                ],
                "xyz": [
                    1.5733771025000003,
                    -2.8926161233795336,
                    4.424250005
                ],
                "label": "La",
                "properties": {}
            },
            {
                "species": [
                    {
                        "element": "La",
                        "occu": 1
                    }
                ],
                "abc": [
                    0.22785444,
                    0.77214556,
                    0.25
                ],
                "xyz": [
                    4.1536608075000006,
                    2.8926161233795336,
                    1.4736343349999999
                ],
                "label": "La",
                "properties": {}
            },
            {
                "species": [
                    {
                        "element": "Mo",
                        "occu": 1
                    }
                ],
                "abc": [
                    0.30713887,
                    0.31087462,
                    0.76116664
                ],
                "xyz": [
                    -0.5637082751853186,
                    0.019853512735822587,
                    4.490786185354982
                ],
                "label": "Mo",
                "properties": {}
            },
            {
                "species": [
                    {
                        "element": "Mo",
                        "occu": 1
                    }
                ],
                "abc": [
                    0.69286113,
                    0.68912538,
                    0.23883336
                ],
                "xyz": [
                    6.29074618518532,
                    -0.019853512735822587,
                    1.4070981546450174
                ],
                "label": "Mo",
                "properties": {}
            },
            {
                "species": [
                    {
                        "element": "Mo",
                        "occu": 1
                    }
                ],
                "abc": [
                    0.68912538,
                    0.69286113,
                    0.73883336
                ],
                "xyz": [
                    3.71046248018532,
                    0.019853512735822587,
                    4.357713824645017
                ],
                "label": "Mo",
                "properties": {}
            },
            {
                "species": [
                    {
                        "element": "Mo",
                        "occu": 1
                    }
                ],
                "abc": [
                    0.31087462,
                    0.30713887,
                    0.26116664
                ],
                "xyz": [
                    2.016575429814681,
                    -0.019853512735822587,
                    1.5401705153549825
                ],
                "label": "Mo",
                "properties": {}
            },
            {
                "species": [
                    {
                        "element": "O",
                        "occu": 1
                    }
                ],
                "abc": [
                    0.23482776,
                    0.38944112,
                    0.56246632
                ],
                "xyz": [
                    0.4957512292845898,
                    0.8216872948908007,
                    3.3181991613077884
                ],
                "label": "O",
                "properties": {}
            },
            {
                "species": [
                    {
                        "element": "O",
                        "occu": 1
                    }
                ],
                "abc": [
                    0.76517224,
                    0.61055888,
                    0.43753368
                ],
                "xyz": [
                    5.231286680715411,
                    -0.8216872948908005,
                    2.579685178692211
                ],
                "label": "O",
                "properties": {}
            },
            {
                "species": [
                    {
                        "element": "O",
                        "occu": 1
                    }
                ],
                "abc": [
                    0.61055888,
                    0.76517224,
                    0.93753368
                ],
                "xyz": [
                    2.6510029757154108,
                    0.8216872948908005,
                    5.530300848692212
                ],
                "label": "O",
                "properties": {}
            },
            {
                "species": [
                    {
                        "element": "O",
                        "occu": 1
                    }
                ],
                "abc": [
                    0.38944112,
                    0.23482776,
                    0.06246632
                ],
                "xyz": [
                    3.076034934284589,
                    -0.8216872948908007,
                    0.3675834913077888
                ],
                "label": "O",
                "properties": {}
            },
            {
                "species": [
                    {
                        "element": "O",
                        "occu": 1
                    }
                ],
                "abc": [
                    0.92073415,
                    0.60944254,
                    0.86783579
                ],
                "xyz": [
                    3.851454840186393,
                    -1.6543483754773982,
                    5.118739011230944
                ],
                "label": "O",
                "properties": {}
            },
            {
                "species": [
                    {
                        "element": "O",
                        "occu": 1
                    }
                ],
                "abc": [
                    0.07926585,
                    0.39055746,
                    0.13216421
                ],
                "xyz": [
                    1.875583069813609,
                    1.6543483754773982,
                    0.7791453287690564
                ],
                "label": "O",
                "properties": {}
            },
            {
                "species": [
                    {
                        "element": "O",
                        "occu": 1
                    }
                ],
                "abc": [
                    0.39055746,
                    0.07926585,
                    0.63216421
                ],
                "xyz": [
                    -0.7047006351863909,
                    -1.6543483754773982,
                    3.7297609987690565
                ],
                "label": "O",
                "properties": {}
            },
            {
                "species": [
                    {
                        "element": "O",
                        "occu": 1
                    }
                ],
                "abc": [
                    0.60944254,
                    0.92073415,
                    0.36783579
                ],
                "xyz": [
                    6.431738545186393,
                    1.6543483754773982,
                    2.1681233412309435
                ],
                "label": "O",
                "properties": {}
            },
            {
                "species": [
                    {
                        "element": "O",
                        "occu": 1
                    }
                ],
                "abc": [
                    0.63031152,
                    0.41856218,
                    0.97622169
                ],
                "xyz": [
                    0.6720035997149196,
                    -1.1253344625555806,
                    5.759154741678814
                ],
                "label": "O",
                "properties": {}
            },
            {
                "species": [
                    {
                        "element": "O",
                        "occu": 1
                    }
                ],
                "abc": [
                    0.36968848,
                    0.58143782,
                    0.02377831
                ],
                "xyz": [
                    5.055034310285081,
                    1.1253344625555806,
                    0.13872959832118542
                ],
                "label": "O",
                "properties": {}
            },
            {
                "species": [
                    {
                        "element": "O",
                        "occu": 1
                    }
                ],
                "abc": [
                    0.58143782,
                    0.36968848,
                    0.52377831
                ],
                "xyz": [
                    2.474750605285082,
                    -1.1253344625555806,
                    3.089345268321185
                ],
                "label": "O",
                "properties": {}
            },
            {
                "species": [
                    {
                        "element": "O",
                        "occu": 1
                    }
                ],
                "abc": [
                    0.41856218,
                    0.63031152,
                    0.47622169
                ],
                "xyz": [
                    3.2522873047149194,
                    1.1253344625555806,
                    2.808539071678814
                ],
                "label": "O",
                "properties": {}
            },
            {
                "species": [
                    {
                        "element": "O",
                        "occu": 1
                    }
                ],
                "abc": [
                    0.05886825,
                    0.20377491,
                    0.69116604
                ],
                "xyz": [
                    -2.1370314078839505,
                    0.7701013771840999,
                    4.078291163063434
                ],
                "label": "O",
                "properties": {}
            },
            {
                "species": [
                    {
                        "element": "O",
                        "occu": 1
                    }
                ],
                "abc": [
                    0.94113175,
                    0.79622509,
                    0.30883396
                ],
                "xyz": [
                    7.864069317883951,
                    -0.7701013771841003,
                    1.8195931769365665
                ],
                "label": "O",
                "properties": {}
            },
            {
                "species": [
                    {
                        "element": "O",
                        "occu": 1
                    }
                ],
                "abc": [
                    0.79622509,
                    0.94113175,
                    0.80883396
                ],
                "xyz": [
                    5.2837856128839515,
                    0.7701013771841003,
                    4.770208846936566
                ],
                "label": "O",
                "properties": {}
            },
            {
                "species": [
                    {
                        "element": "O",
                        "occu": 1
                    }
                ],
                "abc": [
                    0.20377491,
                    0.05886825,
                    0.19116604
                ],
                "xyz": [
                    0.4432522971160492,
                    -0.7701013771840999,
                    1.1276754930634336
                ],
                "label": "O",
                "properties": {}
            }
        ]
    },
    "spacegroup": {
        "source": "spglib",
        "symbol": "C2/c",
        "number": 15,
        "point_group": "2/m",
        "crystal_system": "monoclinic",
        "hall": "-C 2yc"
    },
    "dielectric": {
        "epsilon_ionic": [
            [
                10.8693632,
                1e-08,
                -0.75339743
            ],
            [
                1e-08,
                10.00022753,
                5e-08
            ],
            [
                -0.75339743,
                5e-08,
                9.68590143
            ]
        ],
        "epsilon_ionic_avg": 10.185164053333338,
        "epsilon_ionic_eig": [
            11.235626640553912,
            9.319637989446097,
            10.000227530000005
        ],
        "epsilon_electronic": [
            [
                4.61772228,
                0.0,
                0.07247042
            ],
            [
                0.0,
                4.41954408,
                0.0
            ],
            [
                0.07246096,
                0.0,
                4.7445682
            ]
        ],
        "epsilon_electronic_avg": 4.5939448533333325,
        "epsilon_electronic_eig": [
            4.584844938546864,
            4.777445541453136,
            4.41954408
        ]
    },
    "phonon": {
        "lowest_freq": -0.05386378328397201,
        "frequency": [
            -0.05386378328397201,
            -0.049803780161086914,
            -0.03840953638992049,
            2.071688586615683,
            2.3157689616827093,
            2.5401601405791445,
            2.5844007696136546,
            2.5931937128453906,
            2.6975953474473386,
            3.0134572765640892,
            3.0478304406827483,
            3.089784154444708,
            3.3609294617775793,
            3.45702513624611,
            3.512385510822011,
            3.6043944623399873,
            3.810103131664439,
            3.857771482639995,
            3.980515694795128,
            4.528288318166954,
            4.563020791371147,
            4.893519750625189,
            4.980160202581048,
            5.068534993793663,
            5.515892231100107,
            5.64093880045877,
            5.722028130829239,
            6.007721786269953,
            6.2084642279327795,
            6.580341243349654,
            6.859557281491459,
            7.172032046901603,
            7.493673999257659,
            7.541420576627355,
            7.581513862338054,
            7.848795589017715,
            8.886865567352164,
            8.97515043152887,
            9.086085061322798,
            9.231732022900287,
            9.54322266225898,
            9.70220502759868,
            9.726886795816545,
            9.86645721504714,
            10.15160634763953,
            10.92082845316389,
            11.063131345820809,
            11.363890775011843,
            11.390362213586497,
            11.464287441111468,
            11.597746481842735,
            11.655422370925955,
            12.168463683951902,
            13.55796811296467,
            14.729632716205957,
            14.816431780175403,
            17.778146287247303,
            18.317187176677965,
            19.30703796754146,
            19.30894717025588,
            21.169987817027874,
            21.34815679225482,
            21.37477449954043,
            21.767574709987414,
            22.36702126098723,
            23.17233251690701,
            23.432608628510575,
            24.001051779956576,
            24.55357443808001,
            25.429695645182846,
            26.025356606666715,
            26.549349144379768
        ]
    },
    "born_effective_charge": {
        "avg_abs_trace": 2.8367316666666667,
        "tensors": [
            [
                [
                    1.15421,
                    -1e-05,
                    0.10089
                ],
                [
                    0.0,
                    1.47143,
                    0.0
                ],
                [
                    0.12757,
                    2e-05,
                    1.2326
                ]
            ],
            [
                [
                    1.15421,
                    1e-05,
                    0.10089
                ],
                [
                    0.0,
                    1.47147,
                    0.0
                ],
                [
                    0.12757,
                    -2e-05,
                    1.2326
                ]
            ],
            [
                [
                    4.85272,
                    -1e-05,
                    -0.07239
                ],
                [
                    0.0,
                    5.97854,
                    0.0
                ],
                [
                    0.08719,
                    0.0,
                    4.65816
                ]
            ],
            [
                [
                    4.85272,
                    1e-05,
                    -0.07239
                ],
                [
                    0.0,
                    5.97906,
                    0.0
                ],
                [
                    0.08719,
                    -0.0,
                    4.65816
                ]
            ],
            [
                [
                    5.60111,
                    0.09685,
                    0.0855
                ],
                [
                    -0.52646,
                    4.61554,
                    0.66515
                ],
                [
                    0.02751,
                    0.57097,
                    5.64022
                ]
            ],
            [
                [
                    5.60099,
                    0.09739,
                    0.08578
                ],
                [
                    -0.52695,
                    4.61544,
                    0.66492
                ],
                [
                    0.02713,
                    0.57025,
                    5.63993
                ]
            ],
            [
                [
                    5.60099,
                    -0.09739,
                    0.08578
                ],
                [
                    0.52646,
                    4.61554,
                    -0.66515
                ],
                [
                    0.02713,
                    -0.57025,
                    5.63993
                ]
            ],
            [
                [
                    5.60111,
                    -0.09685,
                    0.0855
                ],
                [
                    0.52695,
                    4.61544,
                    -0.66492
                ],
                [
                    0.02751,
                    -0.57097,
                    5.64022
                ]
            ],
            [
                [
                    -1.93985,
                    -0.61319,
                    1.35891
                ],
                [
                    -0.30602,
                    -1.00613,
                    0.33509
                ],
                [
                    1.27056,
                    0.65071,
                    -2.14533
                ]
            ],
            [
                [
                    -1.94015,
                    -0.61364,
                    1.35884
                ],
                [
                    -0.30587,
                    -1.00602,
                    0.33487
                ],
                [
                    1.27099,
                    0.65145,
                    -2.14545
                ]
            ],
            [
                [
                    -1.94015,
                    0.61364,
                    1.35884
                ],
                [
                    0.30602,
                    -1.00613,
                    -0.33509
                ],
                [
                    1.27099,
                    -0.65145,
                    -2.14545
                ]
            ],
            [
                [
                    -1.93985,
                    0.61319,
                    1.35891
                ],
                [
                    0.30587,
                    -1.00602,
                    -0.33487
                ],
                [
                    1.27056,
                    -0.65071,
                    -2.14533
                ]
            ],
            [
                [
                    -1.2932,
                    0.19351,
                    -0.36627
                ],
                [
                    0.00648,
                    -3.20123,
                    1.40986
                ],
                [
                    -0.36514,
                    1.59556,
                    -2.26103
                ]
            ],
            [
                [
                    -1.29306,
                    0.19326,
                    -0.36593
                ],
                [
                    0.00647,
                    -3.20115,
                    1.40969
                ],
                [
                    -0.36517,
                    1.59559,
                    -2.26149
                ]
            ],
            [
                [
                    -1.29306,
                    -0.19326,
                    -0.36593
                ],
                [
                    -0.00648,
                    -3.20123,
                    -1.40986
                ],
                [
                    -0.36517,
                    -1.59559,
                    -2.26149
                ]
            ],
            [
                [
                    -1.2932,
                    -0.19351,
                    -0.36627
                ],
                [
                    -0.00647,
                    -3.20115,
                    -1.40969
                ],
                [
                    -0.36514,
                    -1.59556,
                    -2.26103
                ]
            ],
            [
                [
                    -1.69078,
                    0.41422,
                    -0.6988
                ],
                [
                    0.50041,
                    -2.36051,
                    -0.90578
                ],
                [
                    -0.48214,
                    -0.98567,
                    -3.11777
                ]
            ],
            [
                [
                    -1.69056,
                    0.41437,
                    -0.69863
                ],
                [
                    0.50049,
                    -2.361,
                    -0.90529
                ],
                [
                    -0.48287,
                    -0.98572,
                    -3.11816
                ]
            ],
            [
                [
                    -1.69056,
                    -0.41437,
                    -0.69863
                ],
                [
                    -0.50041,
                    -2.36051,
                    0.90578
                ],
                [
                    -0.48287,
                    0.98572,
                    -3.11816
                ]
            ],
            [
                [
                    -1.69078,
                    -0.41422,
                    -0.6988
                ],
                [
                    -0.50049,
                    -2.361,
                    0.90529
                ],
                [
                    -0.48214,
                    0.98567,
                    -3.11777
                ]
            ],
            [
                [
                    -3.68085,
                    1.70088,
                    -0.39395
                ],
                [
                    1.60149,
                    -1.77282,
                    0.16475
                ],
                [
                    -0.55811,
                    0.34544,
                    -1.06091
                ]
            ],
            [
                [
                    -3.68057,
                    1.70071,
                    -0.39393
                ],
                [
                    1.6018,
                    -1.77238,
                    0.16515
                ],
                [
                    -0.55751,
                    0.34559,
                    -1.06077
                ]
            ],
            [
                [
                    -3.68057,
                    -1.70071,
                    -0.39393
                ],
                [
                    -1.60149,
                    -1.77282,
                    -0.16475
                ],
                [
                    -0.55751,
                    -0.34559,
                    -1.06077
                ]
            ],
            [
                [
                    -3.68085,
                    -1.70088,
                    -0.39395
                ],
                [
                    -1.6018,
                    -1.77238,
                    -0.16515
                ],
                [
                    -0.55811,
                    -0.34544,
                    -1.06091
                ]
            ]
        ]
    },
    "band_gap": 3.1924,
    "is_direct": false,
    "formula": "KLa(MoO4)2"
}