{
    "mp_id": "mp-1194312",
    "nelements": 3,
    "nsites": 28,
    "elements": [
        "Cs",
        "Mo",
        "O"
    ],
    "structure": {
        "@module": "pymatgen.core.structure",
        "@class": "Structure",
        "charge": null,
        "lattice": {
            "matrix": [
                [
                    8.47755728,
                    0.0,
                    0.0
                ],
                [
                    0.0,
                    6.49271221,
                    0.0
                ],
                [
                    0.0,
                    0.0,
                    11.56258363
                ]
            ],
            "a": 8.47755728,
            "b": 6.49271221,
            "c": 11.56258363,
            "alpha": 90.0,
            "beta": 90.0,
            "gamma": 90.0,
            "volume": 636.4316555423422
        },
        "sites": [
            {
                "species": [
                    {
                        "element": "Cs",
                        "occu": 1
                    }
                ],
                "abc": [
                    0.16889301,
                    0.25,
                    0.91858618
                ],
                "xyz": [
                    1.4318001664666127,
                    1.6231780525,
                    10.621229527612234
                ],
                "label": "Cs",
                "properties": {}
            },
            {
                "species": [
                    {
                        "element": "Cs",
                        "occu": 1
                    }
                ],
                "abc": [
                    0.66889301,
                    0.25,
                    0.58141382
                ],
                "xyz": [
                    5.6705788064666125,
                    1.6231780525,
                    6.722645917387767
                ],
                "label": "Cs",
                "properties": {}
            },
            {
                "species": [
                    {
                        "element": "Cs",
                        "occu": 1
                    }
                ],
                "abc": [
                    0.83110699,
                    0.75,
                    0.08141382
                ],
                "xyz": [
                    7.045757113533386,
                    4.8695341574999995,
                    0.9413541023877666
                ],
                "label": "Cs",
                "properties": {}
            },
            {
                "species": [
                    {
                        "element": "Cs",
                        "occu": 1
                    }
                ],
                "abc": [
                    0.33110699,
                    0.75,
                    0.41858618
                ],
                "xyz": [
                    2.8069784735333867,
                    4.8695341574999995,
                    4.839937712612233
                ],
                "label": "Cs",
                "properties": {}
            },
            {
                "species": [
                    {
                        "element": "Cs",
                        "occu": 1
                    }
                ],
                "abc": [
                    0.49144771,
                    0.25,
                    0.20529084
                ],
                "xyz": [
                    4.166276111649828,
                    1.6231780525,
                    2.3736925059729495
                ],
                "label": "Cs",
                "properties": {}
            },
            {
                "species": [
                    {
                        "element": "Cs",
                        "occu": 1
                    }
                ],
                "abc": [
                    0.99144771,
                    0.25,
                    0.29470916
                ],
                "xyz": [
                    8.405054751649828,
                    1.6231780525,
                    3.4075993090270513
                ],
                "label": "Cs",
                "properties": {}
            },
            {
                "species": [
                    {
                        "element": "Cs",
                        "occu": 1
                    }
                ],
                "abc": [
                    0.50855229,
                    0.75,
                    0.79470916
                ],
                "xyz": [
                    4.311281168350171,
                    4.8695341574999995,
                    9.188891124027052
                ],
                "label": "Cs",
                "properties": {}
            },
            {
                "species": [
                    {
                        "element": "Cs",
                        "occu": 1
                    }
                ],
                "abc": [
                    0.00855229,
                    0.75,
                    0.70529084
                ],
                "xyz": [
                    0.0725025283501712,
                    4.8695341574999995,
                    8.15498432097295
                ],
                "label": "Cs",
                "properties": {}
            },
            {
                "species": [
                    {
                        "element": "Mo",
                        "occu": 1
                    }
                ],
                "abc": [
                    0.72421962,
                    0.25,
                    0.92160844
                ],
                "xyz": [
                    6.139613311849833,
                    1.6231780525,
                    10.656174661613838
                ],
                "label": "Mo",
                "properties": {}
            },
            {
                "species": [
                    {
                        "element": "Mo",
                        "occu": 1
                    }
                ],
                "abc": [
                    0.22421962,
                    0.25,
                    0.57839156
                ],
                "xyz": [
                    1.9008346718498335,
                    1.6231780525,
                    6.6877007833861635
                ],
                "label": "Mo",
                "properties": {}
            },
            {
                "species": [
                    {
                        "element": "Mo",
                        "occu": 1
                    }
                ],
                "abc": [
                    0.27578038,
                    0.75,
                    0.07839156
                ],
                "xyz": [
                    2.337943968150166,
                    4.8695341574999995,
                    0.9064089683861628
                ],
                "label": "Mo",
                "properties": {}
            },
            {
                "species": [
                    {
                        "element": "Mo",
                        "occu": 1
                    }
                ],
                "abc": [
                    0.77578038,
                    0.75,
                    0.42160844
                ],
                "xyz": [
                    6.576722608150166,
                    4.8695341574999995,
                    4.874882846613837
                ],
                "label": "Mo",
                "properties": {}
            },
            {
                "species": [
                    {
                        "element": "O",
                        "occu": 1
                    }
                ],
                "abc": [
                    0.51368681,
                    0.25,
                    0.92131105
                ],
                "xyz": [
                    4.354809355755477,
                    1.6231780525,
                    10.652736064868112
                ],
                "label": "O",
                "properties": {}
            },
            {
                "species": [
                    {
                        "element": "O",
                        "occu": 1
                    }
                ],
                "abc": [
                    0.01368681,
                    0.25,
                    0.57868895
                ],
                "xyz": [
                    0.1160307157554768,
                    1.6231780525,
                    6.691139380131888
                ],
                "label": "O",
                "properties": {}
            },
            {
                "species": [
                    {
                        "element": "O",
                        "occu": 1
                    }
                ],
                "abc": [
                    0.48631319,
                    0.75,
                    0.07868895
                ],
                "xyz": [
                    4.122747924244523,
                    4.8695341574999995,
                    0.9098475651318885
                ],
                "label": "O",
                "properties": {}
            },
            {
                "species": [
                    {
                        "element": "O",
                        "occu": 1
                    }
                ],
                "abc": [
                    0.98631319,
                    0.75,
                    0.42131105
                ],
                "xyz": [
                    8.361526564244523,
                    4.8695341574999995,
                    4.871444249868112
                ],
                "label": "O",
                "properties": {}
            },
            {
                "species": [
                    {
                        "element": "O",
                        "occu": 1
                    }
                ],
                "abc": [
                    0.79625185,
                    0.25,
                    0.06762477
                ],
                "xyz": [
                    6.750270667680967,
                    1.6231780525,
                    0.7819170585845151
                ],
                "label": "O",
                "properties": {}
            },
            {
                "species": [
                    {
                        "element": "O",
                        "occu": 1
                    }
                ],
                "abc": [
                    0.29625185,
                    0.25,
                    0.43237523
                ],
                "xyz": [
                    2.511492027680968,
                    1.6231780525,
                    4.999374756415485
                ],
                "label": "O",
                "properties": {}
            },
            {
                "species": [
                    {
                        "element": "O",
                        "occu": 1
                    }
                ],
                "abc": [
                    0.20374815,
                    0.75,
                    0.93237523
                ],
                "xyz": [
                    1.7272866123190318,
                    4.8695341574999995,
                    10.780666571415486
                ],
                "label": "O",
                "properties": {}
            },
            {
                "species": [
                    {
                        "element": "O",
                        "occu": 1
                    }
                ],
                "abc": [
                    0.70374815,
                    0.75,
                    0.56762477
                ],
                "xyz": [
                    5.966065252319032,
                    4.8695341574999995,
                    6.563208873584515
                ],
                "label": "O",
                "properties": {}
            },
            {
                "species": [
                    {
                        "element": "O",
                        "occu": 1
                    }
                ],
                "abc": [
                    0.79607231,
                    0.02375263,
                    0.85031831
                ],
                "xyz": [
                    6.748748607046916,
                    0.1542189908206123,
                    9.831876571495267
                ],
                "label": "O",
                "properties": {}
            },
            {
                "species": [
                    {
                        "element": "O",
                        "occu": 1
                    }
                ],
                "abc": [
                    0.29607231,
                    0.47624737,
                    0.64968169
                ],
                "xyz": [
                    2.5099699670469167,
                    3.0921371141793874,
                    7.5119988735047345
                ],
                "label": "O",
                "properties": {}
            },
            {
                "species": [
                    {
                        "element": "O",
                        "occu": 1
                    }
                ],
                "abc": [
                    0.20392769,
                    0.52375263,
                    0.14968169
                ],
                "xyz": [
                    1.728808672953083,
                    3.4005750958206122,
                    1.7307070585047348
                ],
                "label": "O",
                "properties": {}
            },
            {
                "species": [
                    {
                        "element": "O",
                        "occu": 1
                    }
                ],
                "abc": [
                    0.70392769,
                    0.97624737,
                    0.35031831
                ],
                "xyz": [
                    5.967587312953083,
                    6.338493219179387,
                    4.050584756495266
                ],
                "label": "O",
                "properties": {}
            },
            {
                "species": [
                    {
                        "element": "O",
                        "occu": 1
                    }
                ],
                "abc": [
                    0.20392769,
                    0.97624737,
                    0.14968169
                ],
                "xyz": [
                    1.728808672953083,
                    6.338493219179387,
                    1.7307070585047348
                ],
                "label": "O",
                "properties": {}
            },
            {
                "species": [
                    {
                        "element": "O",
                        "occu": 1
                    }
                ],
                "abc": [
                    0.70392769,
                    0.52375263,
                    0.35031831
                ],
                "xyz": [
                    5.967587312953083,
                    3.4005750958206122,
                    4.050584756495266
                ],
                "label": "O",
                "properties": {}
            },
            {
                "species": [
                    {
                        "element": "O",
                        "occu": 1
                    }
                ],
                "abc": [
                    0.79607231,
                    0.47624737,
                    0.85031831
                ],
                "xyz": [
                    6.748748607046916,
                    3.0921371141793874,
                    9.831876571495267
                ],
                "label": "O",
                "properties": {}
            },
            {
                "species": [
                    {
                        "element": "O",
                        "occu": 1
                    }
                ],
                "abc": [
                    0.29607231,
                    0.02375263,
                    0.64968169
                ],
                "xyz": [
                    2.5099699670469167,
                    0.1542189908206123,
                    7.5119988735047345
                ],
                "label": "O",
                "properties": {}
            }
        ]
    },
    "spacegroup": {
        "source": "spglib",
        "symbol": "Pnma",
        "number": 62,
        "point_group": "mmm",
        "crystal_system": "orthorhombic",
        "hall": "-P 2ac 2n"
    },
    "dielectric": {
        "epsilon_ionic": [
            [
                3.58759561,
                -2.31e-06,
                1.9e-07
            ],
            [
                -2.31e-06,
                6.33168956,
                -4.4e-07
            ],
            [
                1.9e-07,
                -4.4e-07,
                5.77769935
            ]
        ],
        "epsilon_ionic_avg": 5.232328173333334,
        "epsilon_ionic_eig": [
            3.587595609998039,
            6.331689560002298,
            5.777699349999667
        ],
        "epsilon_electronic": [
            [
                2.94136885,
                0.0,
                0.0
            ],
            [
                -0.0,
                2.94354037,
                0.0
            ],
            [
                0.0,
                0.0,
                2.8770674
            ]
        ],
        "epsilon_electronic_avg": 2.9206588733333336,
        "epsilon_electronic_eig": [
            2.94136885,
            2.94354037,
            2.8770674
        ]
    },
    "phonon": {
        "lowest_freq": -0.1292051938045303,
        "frequency": [
            -0.1292051938045303,
            -0.06052215406424952,
            -0.049521347968819684,
            0.5476722653081262,
            0.8540025134009469,
            0.8965942420545517,
            1.022052125846763,
            1.0663433592325482,
            1.0898046755989812,
            1.2060433535878947,
            1.2368843485613175,
            1.2486020435323355,
            1.256773306848032,
            1.2741641117306242,
            1.389475202510266,
            1.4389725880859092,
            1.5392456740007683,
            1.5656132618477046,
            1.6094830782755674,
            1.6418457421929344,
            1.7787166095004205,
            1.8841261472450528,
            1.9241394812418713,
            2.009300662420444,
            2.060780748909124,
            2.0709536297069655,
            2.1573369426974605,
            2.2000919311039637,
            2.235872015482566,
            2.246713942635346,
            2.257864227742935,
            2.34597116215944,
            2.3752625304349477,
            2.545983542011639,
            2.546577581975638,
            2.5683022871254697,
            2.6455862883103025,
            2.702451893120766,
            2.7794801107291733,
            2.839090112835418,
            2.8398560577992074,
            2.843333919258769,
            3.009485462768227,
            3.1297273417098594,
            3.150638671632755,
            3.191770467798398,
            3.219003408956031,
            3.2975732878521304,
            8.731665942247488,
            8.747252043350509,
            8.761427621989688,
            8.781246551801342,
            8.82759091555306,
            8.8359758831268,
            8.845023622965742,
            8.89812455241365,
            8.901911977778646,
            8.932001228362765,
            8.939366695770842,
            9.019470595452486,
            9.042010382915192,
            9.180082648368485,
            9.212197375832654,
            9.236237327385243,
            9.475485701171317,
            9.58666758363747,
            9.616351256920929,
            9.784763705061234,
            24.128595358477234,
            24.26190644450825,
            24.266890054477976,
            24.273621006924653,
            24.31146490568853,
            24.3367759788897,
            24.368175443168294,
            24.54427214118885,
            24.79165836873051,
            24.86059291490029,
            25.2421067677637,
            25.591783608449532,
            26.089686195026538,
            26.10668250368112,
            26.133117258195533,
            26.13814068918822
        ]
    },
    "born_effective_charge": {
        "avg_abs_trace": 1.693390238095238,
        "tensors": [
            [
                [
                    1.51888,
                    -0.0,
                    0.05067
                ],
                [
                    6e-05,
                    1.36524,
                    -2e-05
                ],
                [
                    -0.01136,
                    -0.0,
                    1.19451
                ]
            ],
            [
                [
                    1.51888,
                    -0.0,
                    -0.05067
                ],
                [
                    6e-05,
                    1.36524,
                    2e-05
                ],
                [
                    0.01139,
                    0.0,
                    1.19447
                ]
            ],
            [
                [
                    1.51898,
                    -0.0,
                    0.05067
                ],
                [
                    -6e-05,
                    1.36524,
                    2e-05
                ],
                [
                    -0.01139,
                    0.0,
                    1.19447
                ]
            ],
            [
                [
                    1.51898,
                    -0.0,
                    -0.05067
                ],
                [
                    -6e-05,
                    1.36524,
                    -2e-05
                ],
                [
                    0.01136,
                    0.0,
                    1.19451
                ]
            ],
            [
                [
                    1.40605,
                    -0.0,
                    0.00433
                ],
                [
                    0.00011,
                    1.41323,
                    9e-05
                ],
                [
                    0.03803,
                    0.0,
                    1.5399
                ]
            ],
            [
                [
                    1.40605,
                    -0.0,
                    -0.00433
                ],
                [
                    0.00011,
                    1.41323,
                    -9e-05
                ],
                [
                    -0.03805,
                    0.0,
                    1.54001
                ]
            ],
            [
                [
                    1.40608,
                    -0.0,
                    0.00397
                ],
                [
                    -0.00011,
                    1.41323,
                    -9e-05
                ],
                [
                    0.03805,
                    -0.0,
                    1.54001
                ]
            ],
            [
                [
                    1.40608,
                    -0.0,
                    -0.00397
                ],
                [
                    -0.00011,
                    1.41323,
                    9e-05
                ],
                [
                    -0.03803,
                    0.0,
                    1.5399
                ]
            ],
            [
                [
                    3.16693,
                    -0.0,
                    -0.07734
                ],
                [
                    0.0008,
                    3.22279,
                    -0.00062
                ],
                [
                    0.00316,
                    0.0,
                    2.95335
                ]
            ],
            [
                [
                    3.16693,
                    -0.0,
                    0.07734
                ],
                [
                    0.0008,
                    3.22279,
                    0.00062
                ],
                [
                    -0.0031,
                    0.0,
                    2.95339
                ]
            ],
            [
                [
                    3.16613,
                    -0.0,
                    -0.07762
                ],
                [
                    -0.0008,
                    3.22279,
                    0.00062
                ],
                [
                    0.0031,
                    0.0,
                    2.95339
                ]
            ],
            [
                [
                    3.16613,
                    -0.0,
                    0.07762
                ],
                [
                    -0.0008,
                    3.22279,
                    -0.00062
                ],
                [
                    -0.00316,
                    0.0,
                    2.95335
                ]
            ],
            [
                [
                    -2.83237,
                    -0.0,
                    0.06735
                ],
                [
                    -0.00511,
                    -0.70118,
                    -0.00019
                ],
                [
                    0.01587,
                    -0.0,
                    -0.7581
                ]
            ],
            [
                [
                    -2.83237,
                    -0.0,
                    -0.06735
                ],
                [
                    -0.00511,
                    -0.70118,
                    0.00019
                ],
                [
                    -0.01664,
                    0.0,
                    -0.75826
                ]
            ],
            [
                [
                    -2.83324,
                    -0.0,
                    0.06712
                ],
                [
                    0.00511,
                    -0.70118,
                    0.00019
                ],
                [
                    0.01664,
                    -0.0,
                    -0.75826
                ]
            ],
            [
                [
                    -2.83324,
                    -0.0,
                    -0.06712
                ],
                [
                    0.00511,
                    -0.70118,
                    -0.00019
                ],
                [
                    -0.01587,
                    0.0,
                    -0.7581
                ]
            ],
            [
                [
                    -1.08699,
                    -0.0,
                    -0.58
                ],
                [
                    0.00077,
                    -0.88717,
                    0.00205
                ],
                [
                    -0.5255,
                    0.0,
                    -2.47851
                ]
            ],
            [
                [
                    -1.08699,
                    -0.0,
                    0.58
                ],
                [
                    0.00077,
                    -0.88717,
                    -0.00205
                ],
                [
                    0.52505,
                    0.0,
                    -2.47729
                ]
            ],
            [
                [
                    -1.08593,
                    -0.0,
                    -0.57963
                ],
                [
                    -0.00077,
                    -0.88717,
                    -0.00205
                ],
                [
                    -0.52505,
                    -0.0,
                    -2.47729
                ]
            ],
            [
                [
                    -1.08593,
                    -0.0,
                    0.57963
                ],
                [
                    -0.00077,
                    -0.88717,
                    0.00205
                ],
                [
                    0.5255,
                    0.0,
                    -2.47851
                ]
            ],
            [
                [
                    -1.08617,
                    0.49169,
                    0.33084
                ],
                [
                    0.53926,
                    -2.20307,
                    -0.7657
                ],
                [
                    0.2529,
                    -0.7211,
                    -1.22587
                ]
            ],
            [
                [
                    -1.08617,
                    -0.49169,
                    -0.33084
                ],
                [
                    -0.54089,
                    -2.20984,
                    -0.76812
                ],
                [
                    -0.25268,
                    -0.72084,
                    -1.22586
                ]
            ],
            [
                [
                    -1.08609,
                    -0.4927,
                    0.33166
                ],
                [
                    -0.53926,
                    -2.20307,
                    0.7657
                ],
                [
                    0.25268,
                    0.72084,
                    -1.22586
                ]
            ],
            [
                [
                    -1.08609,
                    0.4927,
                    -0.33166
                ],
                [
                    0.54089,
                    -2.20984,
                    0.76812
                ],
                [
                    -0.2529,
                    0.7211,
                    -1.22587
                ]
            ],
            [
                [
                    -1.08609,
                    0.4927,
                    0.33166
                ],
                [
                    0.54089,
                    -2.20984,
                    -0.76812
                ],
                [
                    0.25268,
                    -0.72084,
                    -1.22586
                ]
            ],
            [
                [
                    -1.08609,
                    -0.4927,
                    -0.33166
                ],
                [
                    -0.53926,
                    -2.20307,
                    -0.7657
                ],
                [
                    -0.2529,
                    -0.7211,
                    -1.22587
                ]
            ],
            [
                [
                    -1.08617,
                    -0.49169,
                    0.33084
                ],
                [
                    -0.54089,
                    -2.20984,
                    0.76812
                ],
                [
                    0.2529,
                    0.7211,
                    -1.22587
                ]
            ],
            [
                [
                    -1.08617,
                    0.49169,
                    -0.33084
                ],
                [
                    0.53926,
                    -2.20307,
                    0.7657
                ],
                [
                    -0.25268,
                    0.72084,
                    -1.22586
                ]
            ]
        ]
    },
    "band_gap": 4.5468,
    "is_direct": false,
    "formula": "Cs2MoO4"
}