{
    "mp_id": "mp-17998",
    "nelements": 3,
    "nsites": 28,
    "elements": [
        "Ca",
        "O",
        "Rh"
    ],
    "structure": {
        "@module": "pymatgen.core.structure",
        "@class": "Structure",
        "charge": null,
        "lattice": {
            "matrix": [
                [
                    8.9617685,
                    0.0,
                    0.0
                ],
                [
                    0.0,
                    3.09023527,
                    0.0
                ],
                [
                    0.0,
                    0.0,
                    10.69064831
                ]
            ],
            "a": 8.9617685,
            "b": 3.09023527,
            "c": 10.69064831,
            "alpha": 90.0,
            "beta": 90.0,
            "gamma": 90.0,
            "volume": 296.06652672164034
        },
        "sites": [
            {
                "species": [
                    {
                        "element": "Ca",
                        "occu": 1
                    }
                ],
                "abc": [
                    0.26528236,
                    0.75,
                    0.1614469
                ],
                "xyz": [
                    2.37739909745366,
                    2.3176764524999998,
                    1.725972028639739
                ],
                "label": "Ca",
                "properties": {}
            },
            {
                "species": [
                    {
                        "element": "Ca",
                        "occu": 1
                    }
                ],
                "abc": [
                    0.73471764,
                    0.25,
                    0.8385531
                ],
                "xyz": [
                    6.584369402546339,
                    0.7725588175,
                    8.964676281360262
                ],
                "label": "Ca",
                "properties": {}
            },
            {
                "species": [
                    {
                        "element": "Ca",
                        "occu": 1
                    }
                ],
                "abc": [
                    0.76528236,
                    0.75,
                    0.3385531
                ],
                "xyz": [
                    6.858283347453661,
                    2.3176764524999998,
                    3.619352126360261
                ],
                "label": "Ca",
                "properties": {}
            },
            {
                "species": [
                    {
                        "element": "Ca",
                        "occu": 1
                    }
                ],
                "abc": [
                    0.23471764,
                    0.25,
                    0.6614469
                ],
                "xyz": [
                    2.10348515254634,
                    0.7725588175,
                    7.071296183639738
                ],
                "label": "Ca",
                "properties": {}
            },
            {
                "species": [
                    {
                        "element": "Rh",
                        "occu": 1
                    }
                ],
                "abc": [
                    0.09084418,
                    0.25,
                    0.40216995
                ],
                "xyz": [
                    0.8141245107323299,
                    0.7725588175,
                    4.299457496300285
                ],
                "label": "Rh",
                "properties": {}
            },
            {
                "species": [
                    {
                        "element": "Rh",
                        "occu": 1
                    }
                ],
                "abc": [
                    0.90915582,
                    0.75,
                    0.59783005
                ],
                "xyz": [
                    8.147643989267669,
                    2.3176764524999998,
                    6.3911908136997155
                ],
                "label": "Rh",
                "properties": {}
            },
            {
                "species": [
                    {
                        "element": "Rh",
                        "occu": 1
                    }
                ],
                "abc": [
                    0.59084418,
                    0.25,
                    0.09783005
                ],
                "xyz": [
                    5.295008760732331,
                    0.7725588175,
                    1.0458666586997156
                ],
                "label": "Rh",
                "properties": {}
            },
            {
                "species": [
                    {
                        "element": "Rh",
                        "occu": 1
                    }
                ],
                "abc": [
                    0.40915582,
                    0.75,
                    0.90216995
                ],
                "xyz": [
                    3.66675973926767,
                    2.3176764524999998,
                    9.644781651300285
                ],
                "label": "Rh",
                "properties": {}
            },
            {
                "species": [
                    {
                        "element": "Rh",
                        "occu": 1
                    }
                ],
                "abc": [
                    0.44714442,
                    0.75,
                    0.3841846
                ],
                "xyz": [
                    4.00720477810677,
                    2.3176764524999998,
                    4.107182444718026
                ],
                "label": "Rh",
                "properties": {}
            },
            {
                "species": [
                    {
                        "element": "Rh",
                        "occu": 1
                    }
                ],
                "abc": [
                    0.55285558,
                    0.25,
                    0.6158154
                ],
                "xyz": [
                    4.95456372189323,
                    0.7725588175,
                    6.583465865281974
                ],
                "label": "Rh",
                "properties": {}
            },
            {
                "species": [
                    {
                        "element": "Rh",
                        "occu": 1
                    }
                ],
                "abc": [
                    0.94714442,
                    0.75,
                    0.1158154
                ],
                "xyz": [
                    8.488089028106769,
                    2.3176764524999998,
                    1.238141710281974
                ],
                "label": "Rh",
                "properties": {}
            },
            {
                "species": [
                    {
                        "element": "Rh",
                        "occu": 1
                    }
                ],
                "abc": [
                    0.05285558,
                    0.25,
                    0.8841846
                ],
                "xyz": [
                    0.47367947189323,
                    0.7725588175,
                    9.452506599718026
                ],
                "label": "Rh",
                "properties": {}
            },
            {
                "species": [
                    {
                        "element": "O",
                        "occu": 1
                    }
                ],
                "abc": [
                    0.08820911,
                    0.25,
                    0.07313483
                ],
                "xyz": [
                    0.7905096234110349,
                    0.7725588175,
                    0.7818587467416372
                ],
                "label": "O",
                "properties": {}
            },
            {
                "species": [
                    {
                        "element": "O",
                        "occu": 1
                    }
                ],
                "abc": [
                    0.91179089,
                    0.75,
                    0.92686517
                ],
                "xyz": [
                    8.171258876588965,
                    2.3176764524999998,
                    9.908789563258363
                ],
                "label": "O",
                "properties": {}
            },
            {
                "species": [
                    {
                        "element": "O",
                        "occu": 1
                    }
                ],
                "abc": [
                    0.58820911,
                    0.25,
                    0.42686517
                ],
                "xyz": [
                    5.271393873411035,
                    0.7725588175,
                    4.563465408258363
                ],
                "label": "O",
                "properties": {}
            },
            {
                "species": [
                    {
                        "element": "O",
                        "occu": 1
                    }
                ],
                "abc": [
                    0.41179089,
                    0.75,
                    0.57313483
                ],
                "xyz": [
                    3.690374626588965,
                    2.3176764524999998,
                    6.127182901741637
                ],
                "label": "O",
                "properties": {}
            },
            {
                "species": [
                    {
                        "element": "O",
                        "occu": 1
                    }
                ],
                "abc": [
                    0.46013869,
                    0.25,
                    0.78870756
                ],
                "xyz": [
                    4.123656417673265,
                    0.7725588175,
                    8.431795143398224
                ],
                "label": "O",
                "properties": {}
            },
            {
                "species": [
                    {
                        "element": "O",
                        "occu": 1
                    }
                ],
                "abc": [
                    0.53986131,
                    0.75,
                    0.21129244
                ],
                "xyz": [
                    4.838112082326735,
                    2.3176764524999998,
                    2.2588531666017766
                ],
                "label": "O",
                "properties": {}
            },
            {
                "species": [
                    {
                        "element": "O",
                        "occu": 1
                    }
                ],
                "abc": [
                    0.96013869,
                    0.25,
                    0.71129244
                ],
                "xyz": [
                    8.604540667673264,
                    0.7725588175,
                    7.604177321601777
                ],
                "label": "O",
                "properties": {}
            },
            {
                "species": [
                    {
                        "element": "O",
                        "occu": 1
                    }
                ],
                "abc": [
                    0.03986131,
                    0.75,
                    0.28870756
                ],
                "xyz": [
                    0.35722783232673494,
                    2.3176764524999998,
                    3.0864709883982235
                ],
                "label": "O",
                "properties": {}
            },
            {
                "species": [
                    {
                        "element": "O",
                        "occu": 1
                    }
                ],
                "abc": [
                    0.381398,
                    0.25,
                    0.02742273
                ],
                "xyz": [
                    3.418000582363,
                    0.7725588175,
                    0.2931667621300863
                ],
                "label": "O",
                "properties": {}
            },
            {
                "species": [
                    {
                        "element": "O",
                        "occu": 1
                    }
                ],
                "abc": [
                    0.618602,
                    0.75,
                    0.97257727
                ],
                "xyz": [
                    5.543767917637,
                    2.3176764524999998,
                    10.397481547869914
                ],
                "label": "O",
                "properties": {}
            },
            {
                "species": [
                    {
                        "element": "O",
                        "occu": 1
                    }
                ],
                "abc": [
                    0.881398,
                    0.25,
                    0.47257727
                ],
                "xyz": [
                    7.898884832363,
                    0.7725588175,
                    5.052157392869914
                ],
                "label": "O",
                "properties": {}
            },
            {
                "species": [
                    {
                        "element": "O",
                        "occu": 1
                    }
                ],
                "abc": [
                    0.118602,
                    0.75,
                    0.52742273
                ],
                "xyz": [
                    1.062883667637,
                    2.3176764524999998,
                    5.638490917130086
                ],
                "label": "O",
                "properties": {}
            },
            {
                "species": [
                    {
                        "element": "O",
                        "occu": 1
                    }
                ],
                "abc": [
                    0.19305714,
                    0.75,
                    0.83316232
                ],
                "xyz": [
                    1.73013339595209,
                    2.3176764524999998,
                    8.90704534826368
                ],
                "label": "O",
                "properties": {}
            },
            {
                "species": [
                    {
                        "element": "O",
                        "occu": 1
                    }
                ],
                "abc": [
                    0.80694286,
                    0.25,
                    0.16683768
                ],
                "xyz": [
                    7.2316351040479105,
                    0.7725588175,
                    1.7836029617363207
                ],
                "label": "O",
                "properties": {}
            },
            {
                "species": [
                    {
                        "element": "O",
                        "occu": 1
                    }
                ],
                "abc": [
                    0.69305714,
                    0.75,
                    0.66683768
                ],
                "xyz": [
                    6.211017645952089,
                    2.3176764524999998,
                    7.128927116736321
                ],
                "label": "O",
                "properties": {}
            },
            {
                "species": [
                    {
                        "element": "O",
                        "occu": 1
                    }
                ],
                "abc": [
                    0.30694286,
                    0.25,
                    0.33316232
                ],
                "xyz": [
                    2.7507508540479098,
                    0.7725588175,
                    3.561721193263679
                ],
                "label": "O",
                "properties": {}
            }
        ]
    },
    "spacegroup": {
        "source": "spglib",
        "symbol": "Pnma",
        "number": 62,
        "point_group": "mmm",
        "crystal_system": "orthorhombic",
        "hall": "-P 2ac 2n"
    },
    "dielectric": {
        "epsilon_ionic": [
            [
                5.22752948,
                -7e-08,
                0.0
            ],
            [
                -7e-08,
                4.46040251,
                -1e-08
            ],
            [
                0.0,
                -1e-08,
                4.77376981
            ]
        ],
        "epsilon_ionic_avg": 4.820567266666669,
        "epsilon_ionic_eig": [
            5.227529480000009,
            4.460402509999995,
            4.773769810000001
        ],
        "epsilon_electronic": [
            [
                6.78753785,
                -0.0,
                0.0
            ],
            [
                0.0,
                7.69265038,
                0.0
            ],
            [
                0.0,
                0.0,
                7.28567212
            ]
        ],
        "epsilon_electronic_avg": 7.255286783333333,
        "epsilon_electronic_eig": [
            6.78753785,
            7.69265038,
            7.28567212
        ]
    },
    "phonon": {
        "lowest_freq": -0.04350646042454764,
        "frequency": [
            -0.04350646042454764,
            -0.04035551672253161,
            -0.01501640870005445,
            2.9775076424793347,
            2.988707691514095,
            3.03325378034979,
            3.120750068780354,
            3.299349642250329,
            4.133943525364771,
            4.200783290520272,
            4.280769208270665,
            4.632394034504926,
            4.7165140199738635,
            4.761598385982726,
            4.8943833895338065,
            4.961552067558332,
            5.041596066570064,
            5.309939546300436,
            5.458079334889672,
            5.653272401841892,
            5.781174872105636,
            5.885339269655039,
            5.969511998943316,
            5.973916098022574,
            6.38534627400864,
            6.620271889037106,
            6.6328893694600595,
            6.834505132896096,
            7.095992648049643,
            7.265395195845385,
            7.444405925377196,
            7.511001244158901,
            7.957374152561615,
            7.97830556732578,
            8.03520514899202,
            8.22198930452207,
            8.399816983121129,
            8.453467699195862,
            8.814087264115964,
            9.364994752464725,
            11.770382157807067,
            12.721889481337893,
            13.245448816078671,
            13.503233077943657,
            14.540176070391134,
            14.572238749852795,
            14.815841454388785,
            15.011632559290467,
            15.0188691401187,
            15.045663281835944,
            15.1015554927455,
            15.102349124072116,
            15.232925971243573,
            15.239807579761345,
            15.366930910510344,
            15.413380543489492,
            15.528322525968008,
            15.573231132746946,
            15.595943320217414,
            15.72155085477068,
            15.737597486230165,
            15.81130045027832,
            16.05634688763902,
            16.229563218998397,
            16.422447940370475,
            16.51285919141239,
            16.678209370990587,
            16.683272683062896,
            16.713410651051156,
            17.026086525551023,
            17.158277249115365,
            17.28969308946385,
            17.385312133141955,
            17.48312493122355,
            17.524950787267542,
            18.037863458869516,
            18.18813715376497,
            18.232873886042555,
            18.2920220981184,
            18.471507651686892,
            19.938451302277695,
            19.977733011041547,
            20.160295541406157,
            20.507461487782233
        ]
    },
    "born_effective_charge": {
        "avg_abs_trace": 2.0332016666666664,
        "tensors": [
            [
                [
                    3.22836,
                    0.0,
                    -0.06139
                ],
                [
                    -0.00011,
                    2.42616,
                    0.00026
                ],
                [
                    -0.06357,
                    0.0,
                    3.06079
                ]
            ],
            [
                [
                    3.22893,
                    0.0,
                    -0.0614
                ],
                [
                    0.00011,
                    2.42616,
                    -0.00026
                ],
                [
                    -0.06378,
                    0.0,
                    3.06092
                ]
            ],
            [
                [
                    3.22836,
                    0.0,
                    0.06139
                ],
                [
                    -0.00011,
                    2.42616,
                    -0.00026
                ],
                [
                    0.06378,
                    0.0,
                    3.06092
                ]
            ],
            [
                [
                    3.22893,
                    0.0,
                    0.0614
                ],
                [
                    0.00011,
                    2.42616,
                    0.00026
                ],
                [
                    0.06357,
                    0.0,
                    3.06079
                ]
            ],
            [
                [
                    2.03275,
                    0.0,
                    -0.87285
                ],
                [
                    1e-05,
                    2.6416,
                    0.00045
                ],
                [
                    -0.82176,
                    0.0,
                    1.57633
                ]
            ],
            [
                [
                    2.03207,
                    0.0,
                    -0.87236
                ],
                [
                    -1e-05,
                    2.6416,
                    -0.00045
                ],
                [
                    -0.82222,
                    0.0,
                    1.57631
                ]
            ],
            [
                [
                    2.03275,
                    0.0,
                    0.87285
                ],
                [
                    1e-05,
                    2.6416,
                    -0.00045
                ],
                [
                    0.82222,
                    0.0,
                    1.57631
                ]
            ],
            [
                [
                    2.03207,
                    0.0,
                    0.87236
                ],
                [
                    -1e-05,
                    2.6416,
                    0.00045
                ],
                [
                    0.82176,
                    -0.0,
                    1.57633
                ]
            ],
            [
                [
                    1.31195,
                    0.0,
                    0.55854
                ],
                [
                    7e-05,
                    2.73793,
                    0.00017
                ],
                [
                    0.30667,
                    0.0,
                    2.33286
                ]
            ],
            [
                [
                    1.31183,
                    -0.0,
                    0.55872
                ],
                [
                    -7e-05,
                    2.73793,
                    -0.00017
                ],
                [
                    0.30656,
                    0.0,
                    2.33275
                ]
            ],
            [
                [
                    1.31195,
                    0.0,
                    -0.55854
                ],
                [
                    7e-05,
                    2.73793,
                    -0.00017
                ],
                [
                    -0.30656,
                    0.0,
                    2.33275
                ]
            ],
            [
                [
                    1.31183,
                    -0.0,
                    -0.55872
                ],
                [
                    -7e-05,
                    2.73793,
                    0.00017
                ],
                [
                    -0.30667,
                    0.0,
                    2.33286
                ]
            ],
            [
                [
                    -1.70552,
                    0.0,
                    0.08426
                ],
                [
                    0.00087,
                    -2.25947,
                    -0.0003
                ],
                [
                    -0.06159,
                    0.0,
                    -1.90851
                ]
            ],
            [
                [
                    -1.70525,
                    0.0,
                    0.08407
                ],
                [
                    -0.00087,
                    -2.25947,
                    0.0003
                ],
                [
                    -0.0614,
                    -0.0,
                    -1.90872
                ]
            ],
            [
                [
                    -1.70552,
                    0.0,
                    -0.08426
                ],
                [
                    0.00087,
                    -2.25947,
                    0.0003
                ],
                [
                    0.0614,
                    0.0,
                    -1.90872
                ]
            ],
            [
                [
                    -1.70525,
                    0.0,
                    -0.08407
                ],
                [
                    -0.00087,
                    -2.25947,
                    -0.0003
                ],
                [
                    0.06159,
                    0.0,
                    -1.90851
                ]
            ],
            [
                [
                    -1.0249,
                    0.0,
                    0.03049
                ],
                [
                    -2e-05,
                    -1.46711,
                    -0.00083
                ],
                [
                    0.39816,
                    0.0,
                    -2.18409
                ]
            ],
            [
                [
                    -1.02514,
                    0.0,
                    0.03053
                ],
                [
                    2e-05,
                    -1.46711,
                    0.00083
                ],
                [
                    0.39812,
                    0.0,
                    -2.18404
                ]
            ],
            [
                [
                    -1.0249,
                    0.0,
                    -0.03049
                ],
                [
                    -2e-05,
                    -1.46711,
                    0.00083
                ],
                [
                    -0.39812,
                    -0.0,
                    -2.18404
                ]
            ],
            [
                [
                    -1.02514,
                    0.0,
                    -0.03053
                ],
                [
                    2e-05,
                    -1.46711,
                    -0.00083
                ],
                [
                    -0.39816,
                    0.0,
                    -2.18409
                ]
            ],
            [
                [
                    -1.84585,
                    -0.0,
                    -0.12797
                ],
                [
                    -0.00025,
                    -2.12403,
                    0.00041
                ],
                [
                    -0.09315,
                    0.0,
                    -1.86173
                ]
            ],
            [
                [
                    -1.84646,
                    0.0,
                    -0.12784
                ],
                [
                    0.00025,
                    -2.12403,
                    -0.00041
                ],
                [
                    -0.0932,
                    0.0,
                    -1.8617
                ]
            ],
            [
                [
                    -1.84585,
                    -0.0,
                    0.12797
                ],
                [
                    -0.00025,
                    -2.12403,
                    -0.00041
                ],
                [
                    0.0932,
                    -0.0,
                    -1.8617
                ]
            ],
            [
                [
                    -1.84646,
                    0.0,
                    0.12784
                ],
                [
                    0.00025,
                    -2.12403,
                    0.00041
                ],
                [
                    0.09315,
                    0.0,
                    -1.86173
                ]
            ],
            [
                [
                    -1.99636,
                    -0.0,
                    0.19431
                ],
                [
                    0.00084,
                    -1.95508,
                    -0.00031
                ],
                [
                    0.15066,
                    -0.0,
                    -1.01563
                ]
            ],
            [
                [
                    -1.99643,
                    0.0,
                    0.19433
                ],
                [
                    -0.00084,
                    -1.95508,
                    0.00031
                ],
                [
                    0.15045,
                    -0.0,
                    -1.01553
                ]
            ],
            [
                [
                    -1.99636,
                    -0.0,
                    -0.19431
                ],
                [
                    0.00084,
                    -1.95508,
                    0.00031
                ],
                [
                    -0.15045,
                    0.0,
                    -1.01553
                ]
            ],
            [
                [
                    -1.99643,
                    0.0,
                    -0.19433
                ],
                [
                    -0.00084,
                    -1.95508,
                    -0.00031
                ],
                [
                    -0.15066,
                    0.0,
                    -1.01563
                ]
            ]
        ]
    },
    "band_gap": 1.6062999999999992,
    "is_direct": false,
    "formula": "Ca(RhO2)2"
}