{
    "mp_id": "mp-1222442",
    "nelements": 3,
    "nsites": 10,
    "elements": [
        "Au",
        "Li",
        "O"
    ],
    "structure": {
        "@module": "pymatgen.core.structure",
        "@class": "Structure",
        "charge": null,
        "lattice": {
            "matrix": [
                [
                    2.35389525,
                    -4.70903656,
                    -5.44e-05
                ],
                [
                    2.35389525,
                    4.70903656,
                    -5.44e-05
                ],
                [
                    -1.06489205,
                    0.0,
                    4.58129472
                ]
            ],
            "a": 5.264584330633194,
            "b": 5.264584330633194,
            "c": 4.703430279025413,
            "alpha": 95.81064625660791,
            "beta": 95.81064625660791,
            "gamma": 126.8820271223211,
            "volume": 101.56289898397557
        },
        "sites": [
            {
                "species": [
                    {
                        "element": "Li",
                        "occu": 1
                    }
                ],
                "abc": [
                    0.79241756,
                    0.20758244,
                    0.5
                ],
                "xyz": [
                    1.8214492249999998,
                    -2.7540099616519873,
                    2.29059296
                ],
                "label": "Li",
                "properties": {}
            },
            {
                "species": [
                    {
                        "element": "Li",
                        "occu": 1
                    }
                ],
                "abc": [
                    0.28258508,
                    0.71741492,
                    0.0
                ],
                "xyz": [
                    2.35389525,
                    2.04762961393895,
                    -5.4399999999999994e-05
                ],
                "label": "Li",
                "properties": {}
            },
            {
                "species": [
                    {
                        "element": "Li",
                        "occu": 1
                    }
                ],
                "abc": [
                    0.71741492,
                    0.28258508,
                    0.0
                ],
                "xyz": [
                    2.35389525,
                    -2.04762961393895,
                    -5.4399999999999994e-05
                ],
                "label": "Li",
                "properties": {}
            },
            {
                "species": [
                    {
                        "element": "Li",
                        "occu": 1
                    }
                ],
                "abc": [
                    0.20758244,
                    0.79241756,
                    0.5
                ],
                "xyz": [
                    1.8214492249999998,
                    2.7540099616519873,
                    2.29059296
                ],
                "label": "Li",
                "properties": {}
            },
            {
                "species": [
                    {
                        "element": "Li",
                        "occu": 1
                    }
                ],
                "abc": [
                    0.0,
                    0.0,
                    0.0
                ],
                "xyz": [
                    0.0,
                    0.0,
                    0.0
                ],
                "label": "Li",
                "properties": {}
            },
            {
                "species": [
                    {
                        "element": "Au",
                        "occu": 1
                    }
                ],
                "abc": [
                    0.5,
                    0.5,
                    0.5
                ],
                "xyz": [
                    1.8214492249999998,
                    0.0,
                    2.29059296
                ],
                "label": "Au",
                "properties": {}
            },
            {
                "species": [
                    {
                        "element": "O",
                        "occu": 1
                    }
                ],
                "abc": [
                    0.10945114,
                    0.40345365,
                    0.25071415
                ],
                "xyz": [
                    0.9403406437257398,
                    1.3844685683217657,
                    1.148567509603712
                ],
                "label": "O",
                "properties": {}
            },
            {
                "species": [
                    {
                        "element": "O",
                        "occu": 1
                    }
                ],
                "abc": [
                    0.59654635,
                    0.89054886,
                    0.74928585
                ],
                "xyz": [
                    2.7025578062742595,
                    1.3844685683217661,
                    3.4326184103962882
                ],
                "label": "O",
                "properties": {}
            },
            {
                "species": [
                    {
                        "element": "O",
                        "occu": 1
                    }
                ],
                "abc": [
                    0.40345365,
                    0.10945114,
                    0.25071415
                ],
                "xyz": [
                    0.9403406437257398,
                    -1.3844685683217657,
                    1.148567509603712
                ],
                "label": "O",
                "properties": {}
            },
            {
                "species": [
                    {
                        "element": "O",
                        "occu": 1
                    }
                ],
                "abc": [
                    0.89054886,
                    0.59654635,
                    0.74928585
                ],
                "xyz": [
                    2.7025578062742595,
                    -1.3844685683217661,
                    3.4326184103962882
                ],
                "label": "O",
                "properties": {}
            }
        ]
    },
    "spacegroup": {
        "source": "spglib",
        "symbol": "C2/m",
        "number": 12,
        "point_group": "2/m",
        "crystal_system": "monoclinic",
        "hall": "-C 2y"
    },
    "dielectric": {
        "epsilon_ionic": [
            [
                3.57875268,
                0.0,
                1.59454671
            ],
            [
                0.0,
                4.33838048,
                0.0
            ],
            [
                1.59454671,
                0.0,
                4.24124668
            ]
        ],
        "epsilon_ionic_avg": 4.0527932799999995,
        "epsilon_ionic_eig": [
            2.2814101720573676,
            5.538589187942632,
            4.33838048
        ],
        "epsilon_electronic": [
            [
                3.43141899,
                0.0,
                0.63445005
            ],
            [
                0.0,
                4.0643842,
                0.0
            ],
            [
                0.63445076,
                0.0,
                3.71955274
            ]
        ],
        "epsilon_electronic_avg": 3.738451976666667,
        "epsilon_electronic_eig": [
            2.9248841582109666,
            4.226087571789034,
            4.0643842
        ]
    },
    "phonon": {
        "lowest_freq": -0.030679872231614887,
        "frequency": [
            -0.030679872231614887,
            -0.011754497127426329,
            -0.007005130443196117,
            5.361828480130247,
            8.103951291154864,
            8.239167036450283,
            8.595084273864872,
            9.075002165429979,
            9.102887760064869,
            9.155429849100857,
            9.209791024049364,
            10.870773557685867,
            10.917715389168011,
            10.961899343449666,
            11.190956175293758,
            11.825976490600693,
            12.249115186552505,
            12.46921434568294,
            12.70036912561133,
            12.906494404968422,
            13.105844891603132,
            14.677582451331508,
            15.146991360884908,
            16.494180267108693,
            17.19167004250364,
            17.40316248515484,
            17.934991194055897,
            18.384391657919817,
            18.712377398036892,
            18.97493142774049
        ]
    },
    "born_effective_charge": {
        "avg_abs_trace": 1.3534866666666665,
        "tensors": [
            [
                [
                    1.07482,
                    -2e-05,
                    -0.21582
                ],
                [
                    0.0,
                    1.1533,
                    0.0
                ],
                [
                    -0.00501,
                    0.0,
                    0.63334
                ]
            ],
            [
                [
                    0.96445,
                    -1e-05,
                    0.2455
                ],
                [
                    -0.0,
                    1.25264,
                    0.0
                ],
                [
                    0.05098,
                    -1e-05,
                    1.37263
                ]
            ],
            [
                [
                    0.96445,
                    1e-05,
                    0.2455
                ],
                [
                    -0.0,
                    1.25262,
                    0.0
                ],
                [
                    0.05098,
                    1e-05,
                    1.37263
                ]
            ],
            [
                [
                    1.07482,
                    2e-05,
                    -0.21582
                ],
                [
                    -0.0,
                    1.15331,
                    0.0
                ],
                [
                    -0.00501,
                    -0.0,
                    0.63334
                ]
            ],
            [
                [
                    1.06453,
                    0.0,
                    0.32759
                ],
                [
                    0.0,
                    0.73504,
                    0.0
                ],
                [
                    0.29032,
                    0.0,
                    1.22509
                ]
            ],
            [
                [
                    0.72044,
                    0.0,
                    1.23406
                ],
                [
                    0.0,
                    2.30651,
                    0.0
                ],
                [
                    1.31793,
                    0.0,
                    1.34834
                ]
            ],
            [
                [
                    -1.46591,
                    0.49436,
                    -0.40527
                ],
                [
                    0.40374,
                    -1.9634,
                    0.61608
                ],
                [
                    -0.42499,
                    0.62695,
                    -1.64627
                ]
            ],
            [
                [
                    -1.46585,
                    -0.49433,
                    -0.40523
                ],
                [
                    -0.40374,
                    -1.9634,
                    -0.61608
                ],
                [
                    -0.4251,
                    -0.62725,
                    -1.64641
                ]
            ],
            [
                [
                    -1.46591,
                    -0.49436,
                    -0.40527
                ],
                [
                    -0.40382,
                    -1.96331,
                    -0.61632
                ],
                [
                    -0.42499,
                    -0.62695,
                    -1.64627
                ]
            ],
            [
                [
                    -1.46585,
                    0.49433,
                    -0.40523
                ],
                [
                    0.40382,
                    -1.96331,
                    0.61632
                ],
                [
                    -0.4251,
                    0.62725,
                    -1.64641
                ]
            ]
        ]
    },
    "band_gap": 2.2996,
    "is_direct": true,
    "formula": "Li5AuO4"
}