{
    "mp_id": "mp-1228174",
    "nelements": 4,
    "nsites": 34,
    "elements": [
        "Ba",
        "Nb",
        "O",
        "Ti"
    ],
    "structure": {
        "@module": "pymatgen.core.structure",
        "@class": "Structure",
        "charge": null,
        "lattice": {
            "matrix": [
                [
                    2.89600904,
                    1.67201152,
                    16.59070123
                ],
                [
                    -2.89600904,
                    1.67201152,
                    16.59070123
                ],
                [
                    0.0,
                    -3.34402404,
                    16.59070123
                ]
            ],
            "a": 16.92435695043974,
            "b": 16.92435695043974,
            "c": 16.924357124665665,
            "alpha": 19.705294029673656,
            "beta": 19.705294029673656,
            "gamma": 19.70529186001645,
            "volume": 482.009122773827
        },
        "sites": [
            {
                "species": [
                    {
                        "element": "Ba",
                        "occu": 1
                    }
                ],
                "abc": [
                    0.76501931,
                    0.76501931,
                    0.76501931
                ],
                "xyz": [
                    0.0,
                    -7.650193096786495e-07,
                    38.076620422172255
                ],
                "label": "Ba",
                "properties": {}
            },
            {
                "species": [
                    {
                        "element": "Ba",
                        "occu": 1
                    }
                ],
                "abc": [
                    0.23498069,
                    0.23498069,
                    0.23498069
                ],
                "xyz": [
                    0.0,
                    -2.3498068990601695e-07,
                    11.695483267827747
                ],
                "label": "Ba",
                "properties": {}
            },
            {
                "species": [
                    {
                        "element": "Ba",
                        "occu": 1
                    }
                ],
                "abc": [
                    0.85005447,
                    0.85005447,
                    0.85005447
                ],
                "xyz": [
                    0.0,
                    -8.500544699252544e-07,
                    42.308999222988
                ],
                "label": "Ba",
                "properties": {}
            },
            {
                "species": [
                    {
                        "element": "Ba",
                        "occu": 1
                    }
                ],
                "abc": [
                    0.14994553,
                    0.14994553,
                    0.14994553
                ],
                "xyz": [
                    0.0,
                    -1.49945529992479e-07,
                    7.4631044670120055
                ],
                "label": "Ba",
                "properties": {}
            },
            {
                "species": [
                    {
                        "element": "Ba",
                        "occu": 1
                    }
                ],
                "abc": [
                    0.61737705,
                    0.61737705,
                    0.61737705
                ],
                "xyz": [
                    0.0,
                    -6.173770494832809e-07,
                    30.72815454842631
                ],
                "label": "Ba",
                "properties": {}
            },
            {
                "species": [
                    {
                        "element": "Ba",
                        "occu": 1
                    }
                ],
                "abc": [
                    0.38262295,
                    0.38262295,
                    0.38262295
                ],
                "xyz": [
                    0.0,
                    -3.826229497683187e-07,
                    19.043949141573687
                ],
                "label": "Ba",
                "properties": {}
            },
            {
                "species": [
                    {
                        "element": "Ba",
                        "occu": 1
                    }
                ],
                "abc": [
                    0.0,
                    0.0,
                    0.0
                ],
                "xyz": [
                    0.0,
                    0.0,
                    0.0
                ],
                "label": "Ba",
                "properties": {}
            },
            {
                "species": [
                    {
                        "element": "Ti",
                        "occu": 1
                    }
                ],
                "abc": [
                    0.92601958,
                    0.92601958,
                    0.92601958
                ],
                "xyz": [
                    0.0,
                    -9.260195796834125e-07,
                    46.08994255473025
                ],
                "label": "Ti",
                "properties": {}
            },
            {
                "species": [
                    {
                        "element": "Ti",
                        "occu": 1
                    }
                ],
                "abc": [
                    0.07398042,
                    0.07398042,
                    0.07398042
                ],
                "xyz": [
                    0.0,
                    -7.398041998452065e-08,
                    3.68216113526975
                ],
                "label": "Ti",
                "properties": {}
            },
            {
                "species": [
                    {
                        "element": "Nb",
                        "occu": 1
                    }
                ],
                "abc": [
                    0.54432115,
                    0.54432115,
                    0.54432115
                ],
                "xyz": [
                    0.0,
                    -5.443211499311928e-07,
                    27.092008718460043
                ],
                "label": "Nb",
                "properties": {}
            },
            {
                "species": [
                    {
                        "element": "Nb",
                        "occu": 1
                    }
                ],
                "abc": [
                    0.45567885,
                    0.45567885,
                    0.45567885
                ],
                "xyz": [
                    0.0,
                    -4.556788499865405e-07,
                    22.68009497153996
                ],
                "label": "Nb",
                "properties": {}
            },
            {
                "species": [
                    {
                        "element": "Nb",
                        "occu": 1
                    }
                ],
                "abc": [
                    0.69194477,
                    0.69194477,
                    0.69194477
                ],
                "xyz": [
                    0.0,
                    -6.919447699260672e-07,
                    34.4395468401932
                ],
                "label": "Nb",
                "properties": {}
            },
            {
                "species": [
                    {
                        "element": "Nb",
                        "occu": 1
                    }
                ],
                "abc": [
                    0.30805523,
                    0.30805523,
                    0.30805523
                ],
                "xyz": [
                    0.0,
                    -3.080552297696215e-07,
                    15.3325568498068
                ],
                "label": "Nb",
                "properties": {}
            },
            {
                "species": [
                    {
                        "element": "O",
                        "occu": 1
                    }
                ],
                "abc": [
                    0.23750746,
                    0.74218007,
                    0.74218007
                ],
                "xyz": [
                    -1.4615364408003946,
                    -0.843819159928537,
                    28.566990909217147
                ],
                "label": "O",
                "properties": {}
            },
            {
                "species": [
                    {
                        "element": "O",
                        "occu": 1
                    }
                ],
                "abc": [
                    0.74218007,
                    0.74218007,
                    0.23750746
                ],
                "xyz": [
                    0.0,
                    1.6876365979894745,
                    28.566990909217147
                ],
                "label": "O",
                "properties": {}
            },
            {
                "species": [
                    {
                        "element": "O",
                        "occu": 1
                    }
                ],
                "abc": [
                    0.74218007,
                    0.23750746,
                    0.74218007
                ],
                "xyz": [
                    1.4615364408003946,
                    -0.843819159928537,
                    28.566990909217147
                ],
                "label": "O",
                "properties": {}
            },
            {
                "species": [
                    {
                        "element": "O",
                        "occu": 1
                    }
                ],
                "abc": [
                    0.76249254,
                    0.25781993,
                    0.25781993
                ],
                "xyz": [
                    1.4615364408003946,
                    0.8438181599285375,
                    21.20511278078285
                ],
                "label": "O",
                "properties": {}
            },
            {
                "species": [
                    {
                        "element": "O",
                        "occu": 1
                    }
                ],
                "abc": [
                    0.25781993,
                    0.25781993,
                    0.76249254
                ],
                "xyz": [
                    0.0,
                    -1.6876375979894744,
                    21.20511278078285
                ],
                "label": "O",
                "properties": {}
            },
            {
                "species": [
                    {
                        "element": "O",
                        "occu": 1
                    }
                ],
                "abc": [
                    0.25781993,
                    0.76249254,
                    0.25781993
                ],
                "xyz": [
                    -1.4615364408003946,
                    0.8438181599285375,
                    21.20511278078285
                ],
                "label": "O",
                "properties": {}
            },
            {
                "species": [
                    {
                        "element": "O",
                        "occu": 1
                    }
                ],
                "abc": [
                    0.3794007,
                    0.87971562,
                    0.87971562
                ],
                "xyz": [
                    -1.448916531166877,
                    -0.8365331895834984,
                    35.48472169772129
                ],
                "label": "O",
                "properties": {}
            },
            {
                "species": [
                    {
                        "element": "O",
                        "occu": 1
                    }
                ],
                "abc": [
                    0.87971562,
                    0.87971562,
                    0.3794007
                ],
                "xyz": [
                    0.0,
                    1.673064240335057,
                    35.48472169772129
                ],
                "label": "O",
                "properties": {}
            },
            {
                "species": [
                    {
                        "element": "O",
                        "occu": 1
                    }
                ],
                "abc": [
                    0.87971562,
                    0.3794007,
                    0.87971562
                ],
                "xyz": [
                    1.448916531166877,
                    -0.8365331895834984,
                    35.48472169772129
                ],
                "label": "O",
                "properties": {}
            },
            {
                "species": [
                    {
                        "element": "O",
                        "occu": 1
                    }
                ],
                "abc": [
                    0.6205993,
                    0.12028438,
                    0.12028438
                ],
                "xyz": [
                    1.4489165311668768,
                    0.8365321895834984,
                    14.287381992278714
                ],
                "label": "O",
                "properties": {}
            },
            {
                "species": [
                    {
                        "element": "O",
                        "occu": 1
                    }
                ],
                "abc": [
                    0.12028438,
                    0.12028438,
                    0.6205993
                ],
                "xyz": [
                    0.0,
                    -1.6730652403350565,
                    14.287381992278714
                ],
                "label": "O",
                "properties": {}
            },
            {
                "species": [
                    {
                        "element": "O",
                        "occu": 1
                    }
                ],
                "abc": [
                    0.12028438,
                    0.6205993,
                    0.12028438
                ],
                "xyz": [
                    -1.4489165311668768,
                    0.8365321895834984,
                    14.287381992278714
                ],
                "label": "O",
                "properties": {}
            },
            {
                "species": [
                    {
                        "element": "O",
                        "occu": 1
                    }
                ],
                "abc": [
                    0.14119313,
                    0.63939577,
                    0.63939577
                ],
                "xyz": [
                    -1.4427993491918656,
                    -0.8330011927701826,
                    23.55854141115015
                ],
                "label": "O",
                "properties": {}
            },
            {
                "species": [
                    {
                        "element": "O",
                        "occu": 1
                    }
                ],
                "abc": [
                    0.63939577,
                    0.63939577,
                    0.14119313
                ],
                "xyz": [
                    0.0,
                    1.666000965555696,
                    23.55854141115015
                ],
                "label": "O",
                "properties": {}
            },
            {
                "species": [
                    {
                        "element": "O",
                        "occu": 1
                    }
                ],
                "abc": [
                    0.63939577,
                    0.14119313,
                    0.63939577
                ],
                "xyz": [
                    1.4427993491918656,
                    -0.8330011927701826,
                    23.55854141115015
                ],
                "label": "O",
                "properties": {}
            },
            {
                "species": [
                    {
                        "element": "O",
                        "occu": 1
                    }
                ],
                "abc": [
                    0.85880687,
                    0.36060423,
                    0.36060423
                ],
                "xyz": [
                    1.4427993491918654,
                    0.8330001927701829,
                    26.213562278849857
                ],
                "label": "O",
                "properties": {}
            },
            {
                "species": [
                    {
                        "element": "O",
                        "occu": 1
                    }
                ],
                "abc": [
                    0.36060423,
                    0.36060423,
                    0.85880687
                ],
                "xyz": [
                    0.0,
                    -1.666001965555695,
                    26.213562278849857
                ],
                "label": "O",
                "properties": {}
            },
            {
                "species": [
                    {
                        "element": "O",
                        "occu": 1
                    }
                ],
                "abc": [
                    0.36060423,
                    0.85880687,
                    0.36060423
                ],
                "xyz": [
                    -1.4427993491918654,
                    0.8330001927701829,
                    26.213562278849857
                ],
                "label": "O",
                "properties": {}
            },
            {
                "species": [
                    {
                        "element": "O",
                        "occu": 1
                    }
                ],
                "abc": [
                    0.5,
                    0.5,
                    0.0
                ],
                "xyz": [
                    0.0,
                    1.67201152,
                    16.59070123
                ],
                "label": "O",
                "properties": {}
            },
            {
                "species": [
                    {
                        "element": "O",
                        "occu": 1
                    }
                ],
                "abc": [
                    0.5,
                    0.0,
                    0.5
                ],
                "xyz": [
                    1.44800452,
                    -0.8360062599999999,
                    16.59070123
                ],
                "label": "O",
                "properties": {}
            },
            {
                "species": [
                    {
                        "element": "O",
                        "occu": 1
                    }
                ],
                "abc": [
                    0.0,
                    0.5,
                    0.5
                ],
                "xyz": [
                    -1.44800452,
                    -0.8360062599999999,
                    16.59070123
                ],
                "label": "O",
                "properties": {}
            }
        ]
    },
    "spacegroup": {
        "source": "spglib",
        "symbol": "R-3m",
        "number": 166,
        "point_group": "-3m",
        "crystal_system": "trigonal",
        "hall": "-R 3 2\""
    },
    "dielectric": {
        "epsilon_ionic": [
            [
                34.38519848,
                -1e-08,
                2e-08
            ],
            [
                -1e-08,
                34.37861341,
                -2.26e-06
            ],
            [
                2e-08,
                -2.26e-06,
                15.39907405
            ]
        ],
        "epsilon_ionic_avg": 28.05429531333334,
        "epsilon_ionic_eig": [
            34.38519848000004,
            15.399074049999731,
            34.37861341000025
        ],
        "epsilon_electronic": [
            [
                5.49872477,
                0.0,
                0.0
            ],
            [
                0.0,
                5.49872537,
                1e-07
            ],
            [
                0.0,
                1e-07,
                4.87440237
            ]
        ],
        "epsilon_electronic_avg": 5.290617503333333,
        "epsilon_electronic_eig": [
            4.874402369999984,
            5.498725370000016,
            5.49872477
        ]
    },
    "phonon": {
        "lowest_freq": -0.08846888875427751,
        "frequency": [
            -0.08846888875427751,
            -0.022044494371496644,
            -0.0220444932073958,
            1.6807389227142682,
            1.6807390099616526,
            1.8596215287097786,
            1.8596216272782728,
            2.2506771355076047,
            2.6952697946264204,
            2.7569923882428955,
            2.794424072028185,
            2.794424225083057,
            2.879264146002238,
            2.9474856406723933,
            2.9474857982169222,
            3.2287503961912756,
            3.260345300533918,
            3.260345476693263,
            3.370279801738909,
            3.3933909140248293,
            3.393391094080805,
            3.490721352444038,
            3.7060375822374003,
            4.138152087164742,
            4.13815220528516,
            4.192518877154133,
            4.1925191015873455,
            4.313452381330008,
            4.495759515601223,
            4.495759743923161,
            4.637132501679899,
            4.637132746758206,
            4.653626739275634,
            4.822363794235926,
            4.839642942306129,
            4.839643114004835,
            5.342426027812992,
            5.3424262336746295,
            5.442069416472816,
            5.442069685929275,
            5.476214816475189,
            5.718648110174902,
            6.629700847063641,
            6.989046519201192,
            6.989046746499842,
            7.128692477256999,
            7.128692717245034,
            7.1501234050506275,
            7.1501236272287265,
            7.281556403615466,
            7.311561640504212,
            7.894330927828609,
            8.049118354076132,
            8.049118384439723,
            8.434982682582993,
            8.434982726044874,
            8.895905451309218,
            9.104648739516554,
            9.104648954264105,
            9.180210916451895,
            9.18021114274311,
            9.265186514312463,
            9.265186857230724,
            9.476841097819221,
            9.532998832653723,
            9.65219354968921,
            9.652193587670235,
            10.31107420784804,
            10.311074385618168,
            10.922674441175895,
            10.922674463551377,
            11.273033466996257,
            11.273033510356393,
            11.729677627473189,
            11.813146475767988,
            11.8131464861124,
            12.121412716506935,
            12.335378211673508,
            12.70730193367192,
            12.809236600132301,
            13.099248760345407,
            15.247056508591744,
            15.247056757046389,
            16.00369733257044,
            16.00369763800002,
            16.01856759365774,
            16.018567898803784,
            16.8897494188948,
            16.889749925356103,
            16.939527341534106,
            16.939527918646142,
            17.351481119571133,
            20.005566531815454,
            20.005567142645763,
            20.258476330829303,
            20.25847705467484,
            21.91983093620349,
            22.296988249703922,
            22.820775446231302,
            23.44262061667416,
            24.359697302447728,
            24.433950069097246
        ]
    },
    "born_effective_charge": {
        "avg_abs_trace": 3.3913285294117648,
        "tensors": [
            [
                [
                    2.88257,
                    4e-05,
                    -6e-05
                ],
                [
                    -0.0,
                    2.88223,
                    -1e-05
                ],
                [
                    0.0,
                    -0.0,
                    2.60798
                ]
            ],
            [
                [
                    2.88257,
                    -4e-05,
                    6e-05
                ],
                [
                    -0.0,
                    2.88214,
                    -3e-05
                ],
                [
                    0.0,
                    -0.0,
                    2.60793
                ]
            ],
            [
                [
                    2.93369,
                    -5e-05,
                    0.00012
                ],
                [
                    -0.0,
                    2.93336,
                    -5e-05
                ],
                [
                    0.0,
                    -0.0,
                    3.69658
                ]
            ],
            [
                [
                    2.93369,
                    5e-05,
                    -0.00012
                ],
                [
                    -0.0,
                    2.93338,
                    -2e-05
                ],
                [
                    0.0,
                    -0.0,
                    3.69755
                ]
            ],
            [
                [
                    2.81609,
                    -1e-05,
                    -4e-05
                ],
                [
                    -0.0,
                    2.81562,
                    -3e-05
                ],
                [
                    0.0,
                    -0.0,
                    2.39799
                ]
            ],
            [
                [
                    2.81609,
                    1e-05,
                    4e-05
                ],
                [
                    -0.0,
                    2.81576,
                    -1e-05
                ],
                [
                    0.0,
                    -0.0,
                    2.39783
                ]
            ],
            [
                [
                    2.91659,
                    0.0,
                    -0.0
                ],
                [
                    -0.0,
                    2.91622,
                    -0.0
                ],
                [
                    0.0,
                    -0.0,
                    2.04611
                ]
            ],
            [
                [
                    6.3869,
                    -0.00021,
                    0.00043
                ],
                [
                    -0.0,
                    6.38646,
                    -1e-05
                ],
                [
                    0.0,
                    0.0,
                    4.6916
                ]
            ],
            [
                [
                    6.3869,
                    0.00021,
                    -0.00043
                ],
                [
                    -0.0,
                    6.38639,
                    -4e-05
                ],
                [
                    0.0,
                    0.0,
                    4.69166
                ]
            ],
            [
                [
                    6.33762,
                    -0.00039,
                    1e-05
                ],
                [
                    -0.0,
                    6.33694,
                    -0.00013
                ],
                [
                    0.0,
                    0.0,
                    5.01306
                ]
            ],
            [
                [
                    6.33762,
                    0.00039,
                    -1e-05
                ],
                [
                    -0.0,
                    6.33731,
                    0.00015
                ],
                [
                    0.0,
                    0.0,
                    5.01449
                ]
            ],
            [
                [
                    7.64513,
                    0.00016,
                    -0.00035
                ],
                [
                    -0.0,
                    7.64467,
                    0.00018
                ],
                [
                    0.0,
                    0.0,
                    6.12965
                ]
            ],
            [
                [
                    7.64513,
                    -0.00016,
                    0.00035
                ],
                [
                    -0.0,
                    7.6446,
                    0.00022
                ],
                [
                    0.0,
                    0.0,
                    6.12967
                ]
            ],
            [
                [
                    -3.6412,
                    -1.06713,
                    1.27427
                ],
                [
                    -1.06716,
                    -2.40855,
                    0.73585
                ],
                [
                    0.95013,
                    0.54856,
                    -2.42135
                ]
            ],
            [
                [
                    -1.79263,
                    -4e-05,
                    -0.0001
                ],
                [
                    -0.0,
                    -4.25699,
                    -1.47168
                ],
                [
                    0.0,
                    -1.09711,
                    -2.42135
                ]
            ],
            [
                [
                    -3.64118,
                    1.06746,
                    -1.27486
                ],
                [
                    1.06716,
                    -2.40855,
                    0.73585
                ],
                [
                    -0.95013,
                    0.54856,
                    -2.42135
                ]
            ],
            [
                [
                    -3.64118,
                    -1.06746,
                    1.27486
                ],
                [
                    -1.06721,
                    -2.40856,
                    0.7358
                ],
                [
                    0.95005,
                    0.54851,
                    -2.42119
                ]
            ],
            [
                [
                    -1.79263,
                    4e-05,
                    0.0001
                ],
                [
                    -0.0,
                    -4.257,
                    -1.47168
                ],
                [
                    0.0,
                    -1.09702,
                    -2.42119
                ]
            ],
            [
                [
                    -3.6412,
                    1.06713,
                    -1.27427
                ],
                [
                    1.06721,
                    -2.40856,
                    0.7358
                ],
                [
                    -0.95005,
                    0.54851,
                    -2.42119
                ]
            ],
            [
                [
                    -3.55532,
                    -0.97355,
                    1.26708
                ],
                [
                    -0.97324,
                    -2.43128,
                    0.73132
                ],
                [
                    1.14482,
                    0.66096,
                    -2.46363
                ]
            ],
            [
                [
                    -1.86948,
                    8e-05,
                    0.0001
                ],
                [
                    -0.0,
                    -4.117,
                    -1.46268
                ],
                [
                    0.0,
                    -1.32193,
                    -2.46363
                ]
            ],
            [
                [
                    -3.55547,
                    0.9732,
                    -1.2666
                ],
                [
                    0.97324,
                    -2.43128,
                    0.73132
                ],
                [
                    -1.14482,
                    0.66096,
                    -2.46363
                ]
            ],
            [
                [
                    -3.55547,
                    -0.9732,
                    1.2666
                ],
                [
                    -0.97325,
                    -2.43136,
                    0.73131
                ],
                [
                    1.14472,
                    0.6609,
                    -2.46372
                ]
            ],
            [
                [
                    -1.86948,
                    -8e-05,
                    -0.0001
                ],
                [
                    -0.0,
                    -4.11703,
                    -1.46261
                ],
                [
                    0.0,
                    -1.32181,
                    -2.46372
                ]
            ],
            [
                [
                    -3.55532,
                    0.97355,
                    -1.26708
                ],
                [
                    0.97325,
                    -2.43136,
                    0.73131
                ],
                [
                    -1.14472,
                    0.6609,
                    -2.46372
                ]
            ],
            [
                [
                    -2.9814,
                    -0.7502,
                    0.62972
                ],
                [
                    -0.74991,
                    -2.11515,
                    0.36351
                ],
                [
                    0.73332,
                    0.42338,
                    -2.27589
                ]
            ],
            [
                [
                    -1.68234,
                    -0.0001,
                    -2e-05
                ],
                [
                    -0.0,
                    -3.41402,
                    -0.72702
                ],
                [
                    0.0,
                    -0.84677,
                    -2.27589
                ]
            ],
            [
                [
                    -2.98141,
                    0.74975,
                    -0.62916
                ],
                [
                    0.74991,
                    -2.11515,
                    0.36351
                ],
                [
                    -0.73332,
                    0.42338,
                    -2.27589
                ]
            ],
            [
                [
                    -2.98141,
                    -0.74975,
                    0.62916
                ],
                [
                    -0.74989,
                    -2.11522,
                    0.36349
                ],
                [
                    0.73354,
                    0.42351,
                    -2.27572
                ]
            ],
            [
                [
                    -1.68234,
                    0.0001,
                    2e-05
                ],
                [
                    -0.0,
                    -3.41405,
                    -0.72701
                ],
                [
                    0.0,
                    -0.84701,
                    -2.27572
                ]
            ],
            [
                [
                    -2.9814,
                    0.7502,
                    -0.62972
                ],
                [
                    0.74989,
                    -2.11522,
                    0.36349
                ],
                [
                    -0.73354,
                    0.42351,
                    -2.27572
                ]
            ],
            [
                [
                    -1.93395,
                    0.0,
                    -0.0
                ],
                [
                    -0.0,
                    -4.412,
                    -1.877
                ],
                [
                    0.0,
                    -1.52731,
                    -2.7192
                ]
            ],
            [
                [
                    -3.79287,
                    1.0732,
                    -1.62572
                ],
                [
                    1.07302,
                    -2.55338,
                    0.93845
                ],
                [
                    -1.32269,
                    0.76365,
                    -2.7192
                ]
            ],
            [
                [
                    -3.79287,
                    -1.0732,
                    1.62572
                ],
                [
                    -1.07302,
                    -2.55338,
                    0.93845
                ],
                [
                    1.32269,
                    0.76365,
                    -2.7192
                ]
            ]
        ]
    },
    "band_gap": 2.3012,
    "is_direct": false,
    "formula": "Ba7Ti2Nb4O21"
}