{
    "mp_id": "mp-18864",
    "nelements": 3,
    "nsites": 14,
    "elements": [
        "O",
        "Rb",
        "W"
    ],
    "structure": {
        "@module": "pymatgen.core.structure",
        "@class": "Structure",
        "charge": null,
        "lattice": {
            "matrix": [
                [
                    6.40028648,
                    -3.13112115,
                    0.00106463
                ],
                [
                    6.40028648,
                    3.13112115,
                    0.00106463
                ],
                [
                    -3.43831905,
                    0.0,
                    7.05473476
                ]
            ],
            "a": 7.125137740106163,
            "b": 7.125137740106163,
            "c": 7.848013788440051,
            "alpha": 113.16678576943039,
            "beta": 113.16678576943039,
            "gamma": 52.137219123975655,
            "volume": 282.7777133660892
        },
        "sites": [
            {
                "species": [
                    {
                        "element": "Rb",
                        "occu": 1
                    }
                ],
                "abc": [
                    0.15604279,
                    0.15604279,
                    0.24639514
                ],
                "xyz": [
                    1.1502520145875414,
                    0.0,
                    1.738584614524102
                ],
                "label": "Rb",
                "properties": {}
            },
            {
                "species": [
                    {
                        "element": "Rb",
                        "occu": 1
                    }
                ],
                "abc": [
                    0.84395721,
                    0.84395721,
                    0.75360486
                ],
                "xyz": [
                    8.21200189541246,
                    0.0,
                    5.318279405475899
                ],
                "label": "Rb",
                "properties": {}
            },
            {
                "species": [
                    {
                        "element": "Rb",
                        "occu": 1
                    }
                ],
                "abc": [
                    0.51151471,
                    0.51151471,
                    0.73707094
                ],
                "xyz": [
                    4.013396311264835,
                    0.0,
                    5.200929128815289
                ],
                "label": "Rb",
                "properties": {}
            },
            {
                "species": [
                    {
                        "element": "Rb",
                        "occu": 1
                    }
                ],
                "abc": [
                    0.48848529,
                    0.48848529,
                    0.26292906
                ],
                "xyz": [
                    5.348857598735166,
                    0.0,
                    1.8559348911847109
                ],
                "label": "Rb",
                "properties": {}
            },
            {
                "species": [
                    {
                        "element": "W",
                        "occu": 1
                    }
                ],
                "abc": [
                    0.82526622,
                    0.82526622,
                    0.27686348
                ],
                "xyz": [
                    9.611935483000117,
                    0.0,
                    1.9549556224821618
                ],
                "label": "W",
                "properties": {}
            },
            {
                "species": [
                    {
                        "element": "W",
                        "occu": 1
                    }
                ],
                "abc": [
                    0.17473378,
                    0.17473378,
                    0.72313652
                ],
                "xyz": [
                    -0.24968157300011695,
                    0.0,
                    5.101908397517837
                ],
                "label": "W",
                "properties": {}
            },
            {
                "species": [
                    {
                        "element": "O",
                        "occu": 1
                    }
                ],
                "abc": [
                    0.09179251,
                    0.6245766,
                    0.42275414
                ],
                "xyz": [
                    3.1314039163942664,
                    1.6682115325825035,
                    2.9831809944374856
                ],
                "label": "O",
                "properties": {}
            },
            {
                "species": [
                    {
                        "element": "O",
                        "occu": 1
                    }
                ],
                "abc": [
                    0.3754234,
                    0.90820749,
                    0.57724586
                ],
                "xyz": [
                    6.230849993605735,
                    1.6682115325825033,
                    4.073683025562514
                ],
                "label": "O",
                "properties": {}
            },
            {
                "species": [
                    {
                        "element": "O",
                        "occu": 1
                    }
                ],
                "abc": [
                    0.90820749,
                    0.3754234,
                    0.57724586
                ],
                "xyz": [
                    6.230849993605735,
                    -1.6682115325825033,
                    4.073683025562514
                ],
                "label": "O",
                "properties": {}
            },
            {
                "species": [
                    {
                        "element": "O",
                        "occu": 1
                    }
                ],
                "abc": [
                    0.6245766,
                    0.09179251,
                    0.42275414
                ],
                "xyz": [
                    3.1314039163942664,
                    -1.6682115325825035,
                    2.9831809944374856
                ],
                "label": "O",
                "properties": {}
            },
            {
                "species": [
                    {
                        "element": "O",
                        "occu": 1
                    }
                ],
                "abc": [
                    0.32803471,
                    0.32803471,
                    0.87499938
                ],
                "xyz": [
                    1.1905052017752533,
                    0.0,
                    6.173587012251064
                ],
                "label": "O",
                "properties": {}
            },
            {
                "species": [
                    {
                        "element": "O",
                        "occu": 1
                    }
                ],
                "abc": [
                    0.67196529,
                    0.67196529,
                    0.12500062
                ],
                "xyz": [
                    8.171748708224749,
                    0.0,
                    0.8832770077489366
                ],
                "label": "O",
                "properties": {}
            },
            {
                "species": [
                    {
                        "element": "O",
                        "occu": 1
                    }
                ],
                "abc": [
                    0.90938394,
                    0.90938394,
                    0.1443999
                ],
                "xyz": [
                    11.144142545634168,
                    0.0,
                    1.0206393087186083
                ],
                "label": "O",
                "properties": {}
            },
            {
                "species": [
                    {
                        "element": "O",
                        "occu": 1
                    }
                ],
                "abc": [
                    0.09061606,
                    0.09061606,
                    0.8556001
                ],
                "xyz": [
                    -1.7818886356341674,
                    0.0,
                    6.036224711281392
                ],
                "label": "O",
                "properties": {}
            }
        ]
    },
    "spacegroup": {
        "source": "spglib",
        "symbol": "C2/m",
        "number": 12,
        "point_group": "2/m",
        "crystal_system": "monoclinic",
        "hall": "-C 2y"
    },
    "dielectric": {
        "epsilon_ionic": [
            [
                3.37713922,
                4e-08,
                -0.15284058
            ],
            [
                4e-08,
                7.14269685,
                3.7e-07
            ],
            [
                -0.15284058,
                3.7e-07,
                2.77604041
            ]
        ],
        "epsilon_ionic_avg": 4.431958826666667,
        "epsilon_ionic_eig": [
            3.413769570828533,
            2.7394100591714357,
            7.142696850000034
        ],
        "epsilon_electronic": [
            [
                2.67950356,
                0.0,
                -0.00077794
            ],
            [
                0.0,
                2.6999259,
                0.0
            ],
            [
                -0.00077879,
                0.0,
                2.65931488
            ]
        ],
        "epsilon_electronic_avg": 2.679581446666667,
        "epsilon_electronic_eig": [
            2.679533525009639,
            2.6592849149903612,
            2.6999259
        ]
    },
    "phonon": {
        "lowest_freq": -0.04249643943741962,
        "frequency": [
            -0.04249643943741962,
            -0.030083801305680103,
            -0.014302478150157434,
            1.0473917265007675,
            1.181906912260074,
            1.4740974357065448,
            1.5054255374366972,
            1.673403623545859,
            1.9023570193770174,
            2.022473289030533,
            2.0275578347744823,
            2.1245423894986954,
            2.625261291058025,
            2.687912123750886,
            2.80681175719396,
            2.873644493549834,
            3.008855414773909,
            3.086579499999002,
            3.122766216834291,
            3.294449299849985,
            3.34471201552636,
            4.09374001989763,
            4.186351068902829,
            4.288388414058042,
            8.263804856769772,
            8.572094571609153,
            8.802028577664414,
            8.907264368625027,
            9.148406874438967,
            9.225222001276212,
            9.295283089103926,
            9.556816924346595,
            10.002283905766314,
            10.106430565264487,
            23.505162830072717,
            23.59285143065728,
            23.60549253893896,
            23.606859061565054,
            23.78462521913733,
            24.1846079420843,
            26.234903516135244,
            26.255096396069213
        ]
    },
    "born_effective_charge": {
        "avg_abs_trace": 1.622161666666667,
        "tensors": [
            [
                [
                    1.33675,
                    -0.0,
                    -0.11588
                ],
                [
                    -9e-05,
                    1.17453,
                    -2e-05
                ],
                [
                    -0.17452,
                    0.0,
                    1.28802
                ]
            ],
            [
                [
                    1.33678,
                    -0.0,
                    -0.11585
                ],
                [
                    9e-05,
                    1.17453,
                    2e-05
                ],
                [
                    -0.17477,
                    0.0,
                    1.28814
                ]
            ],
            [
                [
                    1.2853,
                    -0.0,
                    0.11214
                ],
                [
                    4e-05,
                    1.3773,
                    5e-05
                ],
                [
                    0.17739,
                    0.0,
                    1.33388
                ]
            ],
            [
                [
                    1.28536,
                    -0.0,
                    0.11205
                ],
                [
                    -4e-05,
                    1.3773,
                    -5e-05
                ],
                [
                    0.17718,
                    0.0,
                    1.3343
                ]
            ],
            [
                [
                    3.09817,
                    -0.0,
                    0.06788
                ],
                [
                    -0.0001,
                    3.10378,
                    -0.0001
                ],
                [
                    0.04088,
                    0.0,
                    3.03471
                ]
            ],
            [
                [
                    3.09801,
                    -0.0,
                    0.06802
                ],
                [
                    0.0001,
                    3.10378,
                    0.0001
                ],
                [
                    0.04116,
                    0.0,
                    3.03476
                ]
            ],
            [
                [
                    -0.79587,
                    -0.05301,
                    0.00578
                ],
                [
                    -0.10147,
                    -2.08617,
                    0.84909
                ],
                [
                    0.02351,
                    0.81311,
                    -1.36978
                ]
            ],
            [
                [
                    -0.79575,
                    0.05301,
                    0.00579
                ],
                [
                    0.10147,
                    -2.08617,
                    -0.84909
                ],
                [
                    0.02338,
                    -0.81359,
                    -1.37008
                ]
            ],
            [
                [
                    -0.79575,
                    -0.05301,
                    0.00579
                ],
                [
                    -0.10131,
                    -2.08527,
                    0.84883
                ],
                [
                    0.02338,
                    0.81359,
                    -1.37008
                ]
            ],
            [
                [
                    -0.79587,
                    0.05301,
                    0.00578
                ],
                [
                    0.10131,
                    -2.08527,
                    -0.84883
                ],
                [
                    0.02351,
                    -0.81311,
                    -1.36978
                ]
            ],
            [
                [
                    -1.9743,
                    -0.0,
                    -0.86733
                ],
                [
                    -0.00072,
                    -0.75884,
                    -0.00074
                ],
                [
                    -0.9034,
                    0.0,
                    -1.52196
                ]
            ],
            [
                [
                    -1.97412,
                    -0.0,
                    -0.86698
                ],
                [
                    0.00072,
                    -0.75884,
                    0.00074
                ],
                [
                    -0.90242,
                    0.0,
                    -1.52171
                ]
            ],
            [
                [
                    -2.15434,
                    -0.0,
                    0.79134
                ],
                [
                    5e-05,
                    -0.72532,
                    8e-05
                ],
                [
                    0.81239,
                    0.0,
                    -1.39526
                ]
            ],
            [
                [
                    -2.15438,
                    -0.0,
                    0.79148
                ],
                [
                    -5e-05,
                    -0.72532,
                    -8e-05
                ],
                [
                    0.81231,
                    0.0,
                    -1.39516
                ]
            ]
        ]
    },
    "band_gap": 4.561,
    "is_direct": false,
    "formula": "Rb2WO4"
}