{
    "mp_id": "mp-18781",
    "nelements": 3,
    "nsites": 12,
    "elements": [
        "Cd",
        "Cr",
        "O"
    ],
    "structure": {
        "@module": "pymatgen.core.structure",
        "@class": "Structure",
        "charge": null,
        "lattice": {
            "matrix": [
                [
                    2.83847924,
                    -4.37312832,
                    0.0
                ],
                [
                    2.83847924,
                    4.37312832,
                    0.0
                ],
                [
                    0.0,
                    0.0,
                    6.96462786
                ]
            ],
            "a": 5.213560750494522,
            "b": 5.213560750494522,
            "c": 6.96462786,
            "alpha": 90.0,
            "beta": 90.0,
            "gamma": 114.02697748394898,
            "volume": 172.9043241530443
        },
        "sites": [
            {
                "species": [
                    {
                        "element": "Cr",
                        "occu": 1
                    }
                ],
                "abc": [
                    0.64004939,
                    0.35995061,
                    0.25
                ],
                "xyz": [
                    2.83847924,
                    -1.2249079072154498,
                    1.741156965
                ],
                "label": "Cr",
                "properties": {}
            },
            {
                "species": [
                    {
                        "element": "Cr",
                        "occu": 1
                    }
                ],
                "abc": [
                    0.35995061,
                    0.64004939,
                    0.75
                ],
                "xyz": [
                    2.83847924,
                    1.2249079072154498,
                    5.223470895
                ],
                "label": "Cr",
                "properties": {}
            },
            {
                "species": [
                    {
                        "element": "Cd",
                        "occu": 1
                    }
                ],
                "abc": [
                    0.0,
                    0.0,
                    0.5
                ],
                "xyz": [
                    0.0,
                    0.0,
                    3.48231393
                ],
                "label": "Cd",
                "properties": {}
            },
            {
                "species": [
                    {
                        "element": "Cd",
                        "occu": 1
                    }
                ],
                "abc": [
                    0.0,
                    0.0,
                    0.0
                ],
                "xyz": [
                    0.0,
                    0.0,
                    0.0
                ],
                "label": "Cd",
                "properties": {}
            },
            {
                "species": [
                    {
                        "element": "O",
                        "occu": 1
                    }
                ],
                "abc": [
                    0.71443848,
                    0.77458422,
                    0.75
                ],
                "xyz": [
                    4.226560021838749,
                    0.2630250389213571,
                    5.223470895
                ],
                "label": "O",
                "properties": {}
            },
            {
                "species": [
                    {
                        "element": "O",
                        "occu": 1
                    }
                ],
                "abc": [
                    0.28556152,
                    0.22541578,
                    0.25
                ],
                "xyz": [
                    1.450398458161252,
                    -0.26302503892135676,
                    1.741156965
                ],
                "label": "O",
                "properties": {}
            },
            {
                "species": [
                    {
                        "element": "O",
                        "occu": 1
                    }
                ],
                "abc": [
                    0.77458422,
                    0.71443848,
                    0.25
                ],
                "xyz": [
                    4.226560021838749,
                    -0.2630250389213571,
                    1.741156965
                ],
                "label": "O",
                "properties": {}
            },
            {
                "species": [
                    {
                        "element": "O",
                        "occu": 1
                    }
                ],
                "abc": [
                    0.22541578,
                    0.28556152,
                    0.75
                ],
                "xyz": [
                    1.450398458161252,
                    0.26302503892135676,
                    5.223470895
                ],
                "label": "O",
                "properties": {}
            },
            {
                "species": [
                    {
                        "element": "O",
                        "occu": 1
                    }
                ],
                "abc": [
                    0.25375318,
                    0.74624682,
                    0.94175805
                ],
                "xyz": [
                    2.83847924,
                    2.153737884503885,
                    6.5589943524092735
                ],
                "label": "O",
                "properties": {}
            },
            {
                "species": [
                    {
                        "element": "O",
                        "occu": 1
                    }
                ],
                "abc": [
                    0.74624682,
                    0.25375318,
                    0.44175805
                ],
                "xyz": [
                    2.83847924,
                    -2.153737884503885,
                    3.076680422409273
                ],
                "label": "O",
                "properties": {}
            },
            {
                "species": [
                    {
                        "element": "O",
                        "occu": 1
                    }
                ],
                "abc": [
                    0.74624682,
                    0.25375318,
                    0.05824195
                ],
                "xyz": [
                    2.83847924,
                    -2.153737884503885,
                    0.405633507590727
                ],
                "label": "O",
                "properties": {}
            },
            {
                "species": [
                    {
                        "element": "O",
                        "occu": 1
                    }
                ],
                "abc": [
                    0.25375318,
                    0.74624682,
                    0.55824195
                ],
                "xyz": [
                    2.83847924,
                    2.153737884503885,
                    3.8879474375907273
                ],
                "label": "O",
                "properties": {}
            }
        ]
    },
    "spacegroup": {
        "source": "spglib",
        "symbol": "Cmcm",
        "number": 63,
        "point_group": "mmm",
        "crystal_system": "orthorhombic",
        "hall": "-C 2c 2"
    },
    "dielectric": {
        "epsilon_ionic": [
            [
                6.20019787,
                6e-08,
                2.7e-07
            ],
            [
                6e-08,
                3.49606679,
                -2e-08
            ],
            [
                2.7e-07,
                -2e-08,
                3.12440467
            ]
        ],
        "epsilon_ionic_avg": 4.273556443333333,
        "epsilon_ionic_eig": [
            6.200197870000025,
            3.124404669999976,
            3.4960667899999986
        ],
        "epsilon_electronic": [
            [
                4.66157343,
                0.0,
                0.0
            ],
            [
                0.0,
                4.17240165,
                -0.0
            ],
            [
                0.0,
                0.0,
                3.8922206
            ]
        ],
        "epsilon_electronic_avg": 4.242065226666667,
        "epsilon_electronic_eig": [
            4.66157343,
            4.17240165,
            3.8922206
        ]
    },
    "phonon": {
        "lowest_freq": -0.09719503988981526,
        "frequency": [
            -0.09719503988981526,
            -0.05717051004336565,
            -0.02540242128406472,
            2.2326436588628926,
            2.3199874315627027,
            2.892772827904539,
            3.0398431823904217,
            3.457360469590096,
            3.936743163945641,
            4.019372349273647,
            4.159677544949095,
            4.973698582944674,
            5.484494204991106,
            5.577817889831877,
            5.654167722668928,
            5.999558805021929,
            8.150261712422925,
            8.7319509187169,
            9.846483056940777,
            10.496356924555633,
            10.58097608058667,
            10.826477788887036,
            10.82855809272356,
            11.36134981488327,
            11.371284061318068,
            11.588765939974962,
            11.950899917892254,
            12.257134971432576,
            23.728357305915736,
            24.557446589264835,
            25.126262255049713,
            25.19454874653102,
            27.627860904431408,
            28.049019113756966,
            28.453027441223295,
            29.2029862510428
        ]
    },
    "born_effective_charge": {
        "avg_abs_trace": 2.0100397222222224,
        "tensors": [
            [
                [
                    3.81935,
                    0.00068,
                    0.0
                ],
                [
                    -0.0,
                    3.23188,
                    0.0
                ],
                [
                    -0.0,
                    -0.00029,
                    2.68144
                ]
            ],
            [
                [
                    3.81935,
                    -0.00068,
                    0.0
                ],
                [
                    -0.0,
                    3.23191,
                    0.0
                ],
                [
                    0.0,
                    0.00029,
                    2.68144
                ]
            ],
            [
                [
                    3.08583,
                    -0.0,
                    0.0
                ],
                [
                    -0.0,
                    2.75127,
                    0.86982
                ],
                [
                    0.0,
                    -0.65407,
                    2.52056
                ]
            ],
            [
                [
                    3.08583,
                    -0.0,
                    0.0
                ],
                [
                    -0.0,
                    2.75127,
                    -0.86982
                ],
                [
                    0.0,
                    0.65407,
                    2.52056
                ]
            ],
            [
                [
                    -3.07036,
                    1.43204,
                    0.0
                ],
                [
                    1.30952,
                    -1.34015,
                    0.0
                ],
                [
                    0.00047,
                    -0.00046,
                    -0.90924
                ]
            ],
            [
                [
                    -3.07121,
                    1.43172,
                    0.0
                ],
                [
                    1.30909,
                    -1.34037,
                    0.0
                ],
                [
                    -0.00047,
                    0.00046,
                    -0.90924
                ]
            ],
            [
                [
                    -3.07036,
                    -1.43204,
                    0.0
                ],
                [
                    -1.30909,
                    -1.34037,
                    0.0
                ],
                [
                    0.00047,
                    0.00046,
                    -0.90924
                ]
            ],
            [
                [
                    -3.07121,
                    -1.43172,
                    0.0
                ],
                [
                    -1.30952,
                    -1.34015,
                    0.0
                ],
                [
                    -0.00047,
                    -0.00046,
                    -0.90924
                ]
            ],
            [
                [
                    -0.38181,
                    -0.00011,
                    -0.00058
                ],
                [
                    -0.0,
                    -1.65133,
                    -1.12526
                ],
                [
                    0.0,
                    -1.25199,
                    -1.69227
                ]
            ],
            [
                [
                    -0.38181,
                    0.00011,
                    -0.00058
                ],
                [
                    -0.0,
                    -1.65132,
                    1.125
                ],
                [
                    0.0,
                    1.25199,
                    -1.69227
                ]
            ],
            [
                [
                    -0.38181,
                    0.00011,
                    0.00058
                ],
                [
                    -0.0,
                    -1.65132,
                    -1.125
                ],
                [
                    0.0,
                    -1.25201,
                    -1.69126
                ]
            ],
            [
                [
                    -0.38181,
                    -0.00011,
                    0.00058
                ],
                [
                    -0.0,
                    -1.65133,
                    1.12526
                ],
                [
                    0.0,
                    1.25201,
                    -1.69126
                ]
            ]
        ]
    },
    "band_gap": 2.1849,
    "is_direct": false,
    "formula": "CrCdO4"
}