{
    "mp_id": "mp-17730",
    "nelements": 3,
    "nsites": 24,
    "elements": [
        "K",
        "O",
        "Sn"
    ],
    "structure": {
        "@module": "pymatgen.core.structure",
        "@class": "Structure",
        "charge": null,
        "lattice": {
            "matrix": [
                [
                    5.77670066,
                    0.0,
                    0.0
                ],
                [
                    0.0,
                    10.43456031,
                    0.0
                ],
                [
                    0.0,
                    0.0,
                    7.06050545
                ]
            ],
            "a": 5.77670066,
            "b": 10.43456031,
            "c": 7.06050545,
            "alpha": 90.0,
            "beta": 90.0,
            "gamma": 90.0,
            "volume": 425.58842707005397
        },
        "sites": [
            {
                "species": [
                    {
                        "element": "K",
                        "occu": 1
                    }
                ],
                "abc": [
                    0.7665013,
                    0.08780171,
                    0.3867534
                ],
                "xyz": [
                    4.427848565600859,
                    0.9161722383161301,
                    2.7306744885060303
                ],
                "label": "K",
                "properties": {}
            },
            {
                "species": [
                    {
                        "element": "K",
                        "occu": 1
                    }
                ],
                "abc": [
                    0.2665013,
                    0.08780171,
                    0.1132466
                ],
                "xyz": [
                    1.5394982356008582,
                    0.9161722383161301,
                    0.79957823649397
                ],
                "label": "K",
                "properties": {}
            },
            {
                "species": [
                    {
                        "element": "K",
                        "occu": 1
                    }
                ],
                "abc": [
                    0.2334987,
                    0.58780171,
                    0.6132466
                ],
                "xyz": [
                    1.348852094399142,
                    6.133452393316131,
                    4.32983096149397
                ],
                "label": "K",
                "properties": {}
            },
            {
                "species": [
                    {
                        "element": "K",
                        "occu": 1
                    }
                ],
                "abc": [
                    0.2665013,
                    0.41219829,
                    0.1132466
                ],
                "xyz": [
                    1.5394982356008582,
                    4.30110791668387,
                    0.79957823649397
                ],
                "label": "K",
                "properties": {}
            },
            {
                "species": [
                    {
                        "element": "K",
                        "occu": 1
                    }
                ],
                "abc": [
                    0.7665013,
                    0.41219829,
                    0.3867534
                ],
                "xyz": [
                    4.427848565600859,
                    4.30110791668387,
                    2.7306744885060303
                ],
                "label": "K",
                "properties": {}
            },
            {
                "species": [
                    {
                        "element": "K",
                        "occu": 1
                    }
                ],
                "abc": [
                    0.7334987,
                    0.91219829,
                    0.8867534
                ],
                "xyz": [
                    4.237202424399142,
                    9.51838807168387,
                    6.26092721350603
                ],
                "label": "K",
                "properties": {}
            },
            {
                "species": [
                    {
                        "element": "K",
                        "occu": 1
                    }
                ],
                "abc": [
                    0.7334987,
                    0.58780171,
                    0.8867534
                ],
                "xyz": [
                    4.237202424399142,
                    6.133452393316131,
                    6.26092721350603
                ],
                "label": "K",
                "properties": {}
            },
            {
                "species": [
                    {
                        "element": "K",
                        "occu": 1
                    }
                ],
                "abc": [
                    0.2334987,
                    0.91219829,
                    0.6132466
                ],
                "xyz": [
                    1.348852094399142,
                    9.51838807168387,
                    4.32983096149397
                ],
                "label": "K",
                "properties": {}
            },
            {
                "species": [
                    {
                        "element": "Sn",
                        "occu": 1
                    }
                ],
                "abc": [
                    0.73076284,
                    0.25,
                    0.84028947
                ],
                "xyz": [
                    4.221398180131475,
                    2.6086400775,
                    5.932868382512611
                ],
                "label": "Sn",
                "properties": {}
            },
            {
                "species": [
                    {
                        "element": "Sn",
                        "occu": 1
                    }
                ],
                "abc": [
                    0.76923716,
                    0.75,
                    0.34028947
                ],
                "xyz": [
                    4.443652809868526,
                    7.8259202325,
                    2.4026156575126114
                ],
                "label": "Sn",
                "properties": {}
            },
            {
                "species": [
                    {
                        "element": "Sn",
                        "occu": 1
                    }
                ],
                "abc": [
                    0.23076284,
                    0.25,
                    0.65971053
                ],
                "xyz": [
                    1.3330478501314744,
                    2.6086400775,
                    4.6578897924873885
                ],
                "label": "Sn",
                "properties": {}
            },
            {
                "species": [
                    {
                        "element": "Sn",
                        "occu": 1
                    }
                ],
                "abc": [
                    0.26923716,
                    0.75,
                    0.15971053
                ],
                "xyz": [
                    1.5553024798685255,
                    7.8259202325,
                    1.1276370674873883
                ],
                "label": "Sn",
                "properties": {}
            },
            {
                "species": [
                    {
                        "element": "O",
                        "occu": 1
                    }
                ],
                "abc": [
                    0.4926642,
                    0.37936193,
                    0.72443109
                ],
                "xyz": [
                    2.845973609298372,
                    3.9584749379029986,
                    5.114849659094441
                ],
                "label": "O",
                "properties": {}
            },
            {
                "species": [
                    {
                        "element": "O",
                        "occu": 1
                    }
                ],
                "abc": [
                    0.9926642,
                    0.37936193,
                    0.77556891
                ],
                "xyz": [
                    5.734323939298372,
                    3.9584749379029986,
                    5.475908515905559
                ],
                "label": "O",
                "properties": {}
            },
            {
                "species": [
                    {
                        "element": "O",
                        "occu": 1
                    }
                ],
                "abc": [
                    0.0073358,
                    0.62063807,
                    0.22443109
                ],
                "xyz": [
                    0.042376720701628005,
                    6.476085372097002,
                    1.5845969340944406
                ],
                "label": "O",
                "properties": {}
            },
            {
                "species": [
                    {
                        "element": "O",
                        "occu": 1
                    }
                ],
                "abc": [
                    0.5073358,
                    0.62063807,
                    0.27556891
                ],
                "xyz": [
                    2.9307270507016283,
                    6.476085372097002,
                    1.9456557909055594
                ],
                "label": "O",
                "properties": {}
            },
            {
                "species": [
                    {
                        "element": "O",
                        "occu": 1
                    }
                ],
                "abc": [
                    0.15527433,
                    0.25,
                    0.39174247
                ],
                "xyz": [
                    0.8969733245920578,
                    2.6086400775,
                    2.7658998444314618
                ],
                "label": "O",
                "properties": {}
            },
            {
                "species": [
                    {
                        "element": "O",
                        "occu": 1
                    }
                ],
                "abc": [
                    0.84472567,
                    0.75,
                    0.60825753
                ],
                "xyz": [
                    4.879727335407942,
                    7.8259202325,
                    4.294605605568539
                ],
                "label": "O",
                "properties": {}
            },
            {
                "species": [
                    {
                        "element": "O",
                        "occu": 1
                    }
                ],
                "abc": [
                    0.34472567,
                    0.75,
                    0.89174247
                ],
                "xyz": [
                    1.9913770054079423,
                    7.8259202325,
                    6.296152569431461
                ],
                "label": "O",
                "properties": {}
            },
            {
                "species": [
                    {
                        "element": "O",
                        "occu": 1
                    }
                ],
                "abc": [
                    0.65527433,
                    0.25,
                    0.10825753
                ],
                "xyz": [
                    3.7853236545920583,
                    2.6086400775,
                    0.7643528805685386
                ],
                "label": "O",
                "properties": {}
            },
            {
                "species": [
                    {
                        "element": "O",
                        "occu": 1
                    }
                ],
                "abc": [
                    0.0073358,
                    0.87936193,
                    0.22443109
                ],
                "xyz": [
                    0.042376720701628005,
                    9.175755092902998,
                    1.5845969340944406
                ],
                "label": "O",
                "properties": {}
            },
            {
                "species": [
                    {
                        "element": "O",
                        "occu": 1
                    }
                ],
                "abc": [
                    0.5073358,
                    0.87936193,
                    0.27556891
                ],
                "xyz": [
                    2.9307270507016283,
                    9.175755092902998,
                    1.9456557909055594
                ],
                "label": "O",
                "properties": {}
            },
            {
                "species": [
                    {
                        "element": "O",
                        "occu": 1
                    }
                ],
                "abc": [
                    0.9926642,
                    0.12063807,
                    0.77556891
                ],
                "xyz": [
                    5.734323939298372,
                    1.2588052170970017,
                    5.475908515905559
                ],
                "label": "O",
                "properties": {}
            },
            {
                "species": [
                    {
                        "element": "O",
                        "occu": 1
                    }
                ],
                "abc": [
                    0.4926642,
                    0.12063807,
                    0.72443109
                ],
                "xyz": [
                    2.845973609298372,
                    1.2588052170970017,
                    5.114849659094441
                ],
                "label": "O",
                "properties": {}
            }
        ]
    },
    "spacegroup": {
        "source": "spglib",
        "symbol": "Pnma",
        "number": 62,
        "point_group": "mmm",
        "crystal_system": "orthorhombic",
        "hall": "-P 2ac 2n"
    },
    "dielectric": {
        "epsilon_ionic": [
            [
                6.93957183,
                1e-08,
                1e-08
            ],
            [
                1e-08,
                3.94580858,
                0.0
            ],
            [
                1e-08,
                0.0,
                4.49056082
            ]
        ],
        "epsilon_ionic_avg": 5.125313743333335,
        "epsilon_ionic_eig": [
            6.93957183,
            4.4905608200000025,
            3.9458085800000013
        ],
        "epsilon_electronic": [
            [
                3.43005035,
                0.0,
                0.0
            ],
            [
                0.0,
                2.94774666,
                0.0
            ],
            [
                0.0,
                0.0,
                3.02103437
            ]
        ],
        "epsilon_electronic_avg": 3.1329437933333337,
        "epsilon_electronic_eig": [
            3.43005035,
            2.94774666,
            3.02103437
        ]
    },
    "phonon": {
        "lowest_freq": -0.04717381502381456,
        "frequency": [
            -0.04717381502381456,
            -0.01970364426637632,
            -0.019104799822315794,
            1.6101899977329739,
            1.770449730394839,
            1.8202236995712318,
            2.017385026520302,
            2.0570588017732687,
            2.6950944505151004,
            2.795140381992219,
            2.803691583314532,
            2.808060698527226,
            2.909259034252421,
            3.0168656854970557,
            3.155730066576292,
            3.161348143589667,
            3.290812826321907,
            3.449100062428779,
            3.60046487587404,
            3.609216577022263,
            3.633092754824354,
            3.9065016060774442,
            4.075200865752951,
            4.123966490096806,
            4.157086118786122,
            4.1860721159588214,
            4.20196732112285,
            4.283422816517054,
            4.3384504425547945,
            4.400527355495094,
            4.623752836749203,
            4.6690463670477875,
            4.750695985215872,
            4.894303378324976,
            4.905704381053211,
            5.326989676476759,
            5.479038214177301,
            5.6848355655960345,
            5.721680037564062,
            5.761206885673244,
            6.2412294531184624,
            6.269647367472668,
            7.263144823300171,
            7.2649247906181165,
            7.391182399210024,
            7.4768372990731375,
            7.733496601361636,
            7.837755918721986,
            8.557829273431881,
            8.705891249040484,
            9.249677558801071,
            9.64590390645648,
            11.462459669978879,
            11.470848834351727,
            11.934075348353753,
            12.189836281476577,
            13.279806141138513,
            13.282288152666762,
            14.532592981812453,
            15.888019144018948,
            15.956399091011958,
            16.084457674104,
            16.116923321161988,
            16.19235531239247,
            16.73684920874507,
            17.004381823117402,
            17.096844528213452,
            17.142898381366148,
            18.82605814453209,
            18.86854900416524,
            19.382711409048767,
            19.63979294903683
        ]
    },
    "born_effective_charge": {
        "avg_abs_trace": 1.8102669444444441,
        "tensors": [
            [
                [
                    1.10121,
                    0.04309,
                    -0.03191
                ],
                [
                    0.04647,
                    1.26005,
                    0.10726
                ],
                [
                    0.07392,
                    0.03608,
                    1.19759
                ]
            ],
            [
                [
                    1.10121,
                    0.04309,
                    0.03191
                ],
                [
                    0.04647,
                    1.26005,
                    -0.10726
                ],
                [
                    -0.07396,
                    -0.0361,
                    1.19753
                ]
            ],
            [
                [
                    1.10121,
                    -0.04304,
                    -0.03188
                ],
                [
                    -0.04647,
                    1.26005,
                    -0.10726
                ],
                [
                    0.07396,
                    -0.0361,
                    1.19753
                ]
            ],
            [
                [
                    1.10121,
                    -0.04309,
                    0.03191
                ],
                [
                    -0.04648,
                    1.26003,
                    0.10726
                ],
                [
                    -0.07396,
                    0.0361,
                    1.19753
                ]
            ],
            [
                [
                    1.10121,
                    -0.04309,
                    -0.03191
                ],
                [
                    -0.04648,
                    1.26003,
                    -0.10726
                ],
                [
                    0.07392,
                    -0.03608,
                    1.19759
                ]
            ],
            [
                [
                    1.10121,
                    0.04304,
                    0.03188
                ],
                [
                    0.04648,
                    1.26003,
                    -0.10726
                ],
                [
                    -0.07392,
                    -0.03608,
                    1.19759
                ]
            ],
            [
                [
                    1.10121,
                    -0.04304,
                    0.03188
                ],
                [
                    -0.04647,
                    1.26005,
                    0.10726
                ],
                [
                    -0.07392,
                    0.03608,
                    1.19759
                ]
            ],
            [
                [
                    1.10121,
                    0.04304,
                    -0.03188
                ],
                [
                    0.04648,
                    1.26003,
                    0.10726
                ],
                [
                    0.07396,
                    0.0361,
                    1.19753
                ]
            ],
            [
                [
                    4.11956,
                    0.0,
                    0.17686
                ],
                [
                    -1e-05,
                    2.34588,
                    3e-05
                ],
                [
                    -0.08051,
                    0.0,
                    2.70954
                ]
            ],
            [
                [
                    4.11961,
                    0.0,
                    -0.17671
                ],
                [
                    1e-05,
                    2.34588,
                    3e-05
                ],
                [
                    0.08051,
                    0.0,
                    2.70954
                ]
            ],
            [
                [
                    4.11956,
                    0.0,
                    -0.17686
                ],
                [
                    -1e-05,
                    2.34588,
                    -3e-05
                ],
                [
                    0.08045,
                    0.0,
                    2.70912
                ]
            ],
            [
                [
                    4.11961,
                    0.0,
                    0.17671
                ],
                [
                    1e-05,
                    2.34588,
                    -3e-05
                ],
                [
                    -0.08045,
                    0.0,
                    2.70912
                ]
            ],
            [
                [
                    -2.35988,
                    -0.02783,
                    -0.41649
                ],
                [
                    -0.03258,
                    -1.71746,
                    0.07253
                ],
                [
                    -0.32102,
                    0.07253,
                    -1.44286
                ]
            ],
            [
                [
                    -2.35988,
                    -0.02783,
                    0.41649
                ],
                [
                    -0.03258,
                    -1.71746,
                    -0.07253
                ],
                [
                    0.32098,
                    -0.07248,
                    -1.44281
                ]
            ],
            [
                [
                    -2.36011,
                    -0.0279,
                    0.41691
                ],
                [
                    -0.03256,
                    -1.7175,
                    -0.07253
                ],
                [
                    0.32102,
                    -0.07253,
                    -1.44286
                ]
            ],
            [
                [
                    -2.36011,
                    -0.0279,
                    -0.41691
                ],
                [
                    -0.03256,
                    -1.7175,
                    0.07253
                ],
                [
                    -0.32098,
                    0.07248,
                    -1.44281
                ]
            ],
            [
                [
                    -1.60197,
                    0.0,
                    0.04989
                ],
                [
                    2e-05,
                    -1.43099,
                    -6e-05
                ],
                [
                    -0.10297,
                    0.0,
                    -2.21853
                ]
            ],
            [
                [
                    -1.60204,
                    0.0,
                    0.05008
                ],
                [
                    -2e-05,
                    -1.43099,
                    6e-05
                ],
                [
                    -0.10319,
                    0.0,
                    -2.21902
                ]
            ],
            [
                [
                    -1.60204,
                    0.0,
                    -0.05008
                ],
                [
                    -2e-05,
                    -1.43099,
                    -6e-05
                ],
                [
                    0.10297,
                    0.0,
                    -2.21853
                ]
            ],
            [
                [
                    -1.60197,
                    0.0,
                    -0.04989
                ],
                [
                    2e-05,
                    -1.43099,
                    6e-05
                ],
                [
                    0.10319,
                    0.0,
                    -2.21902
                ]
            ],
            [
                [
                    -2.36011,
                    0.0279,
                    0.41691
                ],
                [
                    0.03258,
                    -1.71746,
                    0.07253
                ],
                [
                    0.32102,
                    0.07253,
                    -1.44286
                ]
            ],
            [
                [
                    -2.36011,
                    0.0279,
                    -0.41691
                ],
                [
                    0.03258,
                    -1.71746,
                    -0.07253
                ],
                [
                    -0.32098,
                    -0.07248,
                    -1.44281
                ]
            ],
            [
                [
                    -2.35988,
                    0.02783,
                    0.41649
                ],
                [
                    0.03256,
                    -1.7175,
                    0.07253
                ],
                [
                    0.32098,
                    0.07248,
                    -1.44281
                ]
            ],
            [
                [
                    -2.35988,
                    0.02783,
                    -0.41649
                ],
                [
                    0.03256,
                    -1.7175,
                    -0.07253
                ],
                [
                    -0.32102,
                    -0.07253,
                    -1.44286
                ]
            ]
        ]
    },
    "band_gap": 2.1978999999999997,
    "is_direct": true,
    "formula": "K2SnO3"
}