{
    "mp_id": "mp-17785",
    "nelements": 4,
    "nsites": 28,
    "elements": [
        "Ga",
        "K",
        "Na",
        "O"
    ],
    "structure": {
        "@module": "pymatgen.core.structure",
        "@class": "Structure",
        "charge": null,
        "lattice": {
            "matrix": [
                [
                    6.48682905,
                    0.0,
                    0.0
                ],
                [
                    0.0,
                    6.15793891,
                    0.0
                ],
                [
                    0.0,
                    0.0,
                    10.07724688
                ]
            ],
            "a": 6.48682905,
            "b": 6.15793891,
            "c": 10.07724688,
            "alpha": 90.0,
            "beta": 90.0,
            "gamma": 90.0,
            "volume": 402.5406351091676
        },
        "sites": [
            {
                "species": [
                    {
                        "element": "K",
                        "occu": 1
                    }
                ],
                "abc": [
                    0.65956943,
                    0.75,
                    0.96766815
                ],
                "xyz": [
                    4.278514139015941,
                    4.618454182500001,
                    9.751430845462872
                ],
                "label": "K",
                "properties": {}
            },
            {
                "species": [
                    {
                        "element": "K",
                        "occu": 1
                    }
                ],
                "abc": [
                    0.84043057,
                    0.25,
                    0.46766815
                ],
                "xyz": [
                    5.451729435984058,
                    1.5394847275,
                    4.712807405462872
                ],
                "label": "K",
                "properties": {}
            },
            {
                "species": [
                    {
                        "element": "K",
                        "occu": 1
                    }
                ],
                "abc": [
                    0.34043057,
                    0.25,
                    0.03233185
                ],
                "xyz": [
                    2.2083149109840585,
                    1.5394847275,
                    0.32581603453712804
                ],
                "label": "K",
                "properties": {}
            },
            {
                "species": [
                    {
                        "element": "K",
                        "occu": 1
                    }
                ],
                "abc": [
                    0.15956943,
                    0.75,
                    0.53233185
                ],
                "xyz": [
                    1.0350996140159416,
                    4.618454182500001,
                    5.364439474537129
                ],
                "label": "K",
                "properties": {}
            },
            {
                "species": [
                    {
                        "element": "Na",
                        "occu": 1
                    }
                ],
                "abc": [
                    0.99031316,
                    0.00828297,
                    0.7693351
                ],
                "xyz": [
                    6.423992174885298,
                    0.05100602325336271,
                    7.752779736149489
                ],
                "label": "Na",
                "properties": {}
            },
            {
                "species": [
                    {
                        "element": "Na",
                        "occu": 1
                    }
                ],
                "abc": [
                    0.50968684,
                    0.99171703,
                    0.2693351
                ],
                "xyz": [
                    3.306251400114702,
                    6.1069328867466375,
                    2.714156296149488
                ],
                "label": "Na",
                "properties": {}
            },
            {
                "species": [
                    {
                        "element": "Na",
                        "occu": 1
                    }
                ],
                "abc": [
                    0.49031316,
                    0.00828297,
                    0.7306649
                ],
                "xyz": [
                    3.180577649885298,
                    0.05100602325336271,
                    7.363090583850512
                ],
                "label": "Na",
                "properties": {}
            },
            {
                "species": [
                    {
                        "element": "Na",
                        "occu": 1
                    }
                ],
                "abc": [
                    0.99031316,
                    0.49171703,
                    0.7693351
                ],
                "xyz": [
                    6.423992174885298,
                    3.0279634317466373,
                    7.752779736149489
                ],
                "label": "Na",
                "properties": {}
            },
            {
                "species": [
                    {
                        "element": "Na",
                        "occu": 1
                    }
                ],
                "abc": [
                    0.00968684,
                    0.99171703,
                    0.2306649
                ],
                "xyz": [
                    0.062836875114702,
                    6.1069328867466375,
                    2.3244671438505122
                ],
                "label": "Na",
                "properties": {}
            },
            {
                "species": [
                    {
                        "element": "Na",
                        "occu": 1
                    }
                ],
                "abc": [
                    0.00968684,
                    0.50828297,
                    0.2306649
                ],
                "xyz": [
                    0.062836875114702,
                    3.129975478253363,
                    2.3244671438505122
                ],
                "label": "Na",
                "properties": {}
            },
            {
                "species": [
                    {
                        "element": "Na",
                        "occu": 1
                    }
                ],
                "abc": [
                    0.50968684,
                    0.50828297,
                    0.2693351
                ],
                "xyz": [
                    3.306251400114702,
                    3.129975478253363,
                    2.714156296149488
                ],
                "label": "Na",
                "properties": {}
            },
            {
                "species": [
                    {
                        "element": "Na",
                        "occu": 1
                    }
                ],
                "abc": [
                    0.49031316,
                    0.49171703,
                    0.7306649
                ],
                "xyz": [
                    3.180577649885298,
                    3.0279634317466373,
                    7.363090583850512
                ],
                "label": "Na",
                "properties": {}
            },
            {
                "species": [
                    {
                        "element": "Ga",
                        "occu": 1
                    }
                ],
                "abc": [
                    0.82989239,
                    0.25,
                    0.00961525
                ],
                "xyz": [
                    5.38337006382593,
                    1.5394847275,
                    0.09689524806292
                ],
                "label": "Ga",
                "properties": {}
            },
            {
                "species": [
                    {
                        "element": "Ga",
                        "occu": 1
                    }
                ],
                "abc": [
                    0.32989239,
                    0.25,
                    0.49038475
                ],
                "xyz": [
                    2.1399555388259293,
                    1.5394847275,
                    4.94172819193708
                ],
                "label": "Ga",
                "properties": {}
            },
            {
                "species": [
                    {
                        "element": "Ga",
                        "occu": 1
                    }
                ],
                "abc": [
                    0.67010761,
                    0.75,
                    0.50961525
                ],
                "xyz": [
                    4.346873511174071,
                    4.618454182500001,
                    5.13551868806292
                ],
                "label": "Ga",
                "properties": {}
            },
            {
                "species": [
                    {
                        "element": "Ga",
                        "occu": 1
                    }
                ],
                "abc": [
                    0.17010761,
                    0.75,
                    0.99038475
                ],
                "xyz": [
                    1.1034589861740705,
                    4.618454182500001,
                    9.980351631937081
                ],
                "label": "Ga",
                "properties": {}
            },
            {
                "species": [
                    {
                        "element": "O",
                        "occu": 1
                    }
                ],
                "abc": [
                    0.71811598,
                    0.25,
                    0.1761988
                ],
                "xyz": [
                    4.6582956003332185,
                    1.5394847275,
                    1.775598807559744
                ],
                "label": "O",
                "properties": {}
            },
            {
                "species": [
                    {
                        "element": "O",
                        "occu": 1
                    }
                ],
                "abc": [
                    0.5,
                    0.0,
                    0.5
                ],
                "xyz": [
                    3.243414525,
                    0.0,
                    5.03862344
                ],
                "label": "O",
                "properties": {}
            },
            {
                "species": [
                    {
                        "element": "O",
                        "occu": 1
                    }
                ],
                "abc": [
                    0.5,
                    0.5,
                    0.5
                ],
                "xyz": [
                    3.243414525,
                    3.078969455,
                    5.03862344
                ],
                "label": "O",
                "properties": {}
            },
            {
                "species": [
                    {
                        "element": "O",
                        "occu": 1
                    }
                ],
                "abc": [
                    0.17289922,
                    0.25,
                    0.64142962
                ],
                "xyz": [
                    1.121567683018341,
                    1.5394847275,
                    6.463844636884586
                ],
                "label": "O",
                "properties": {}
            },
            {
                "species": [
                    {
                        "element": "O",
                        "occu": 1
                    }
                ],
                "abc": [
                    0.82710078,
                    0.75,
                    0.35857038
                ],
                "xyz": [
                    5.365261366981659,
                    4.618454182500001,
                    3.6134022431154147
                ],
                "label": "O",
                "properties": {}
            },
            {
                "species": [
                    {
                        "element": "O",
                        "occu": 1
                    }
                ],
                "abc": [
                    0.67289922,
                    0.25,
                    0.85857038
                ],
                "xyz": [
                    4.364982208018341,
                    1.5394847275,
                    8.652025683115415
                ],
                "label": "O",
                "properties": {}
            },
            {
                "species": [
                    {
                        "element": "O",
                        "occu": 1
                    }
                ],
                "abc": [
                    0.32710078,
                    0.75,
                    0.14142962
                ],
                "xyz": [
                    2.1218468419816587,
                    4.618454182500001,
                    1.4252211968845858
                ],
                "label": "O",
                "properties": {}
            },
            {
                "species": [
                    {
                        "element": "O",
                        "occu": 1
                    }
                ],
                "abc": [
                    0.78188402,
                    0.75,
                    0.6761988
                ],
                "xyz": [
                    5.071947974666781,
                    4.618454182500001,
                    6.814222247559744
                ],
                "label": "O",
                "properties": {}
            },
            {
                "species": [
                    {
                        "element": "O",
                        "occu": 1
                    }
                ],
                "abc": [
                    0.0,
                    0.5,
                    0.0
                ],
                "xyz": [
                    0.0,
                    3.078969455,
                    0.0
                ],
                "label": "O",
                "properties": {}
            },
            {
                "species": [
                    {
                        "element": "O",
                        "occu": 1
                    }
                ],
                "abc": [
                    0.0,
                    0.0,
                    0.0
                ],
                "xyz": [
                    0.0,
                    0.0,
                    0.0
                ],
                "label": "O",
                "properties": {}
            },
            {
                "species": [
                    {
                        "element": "O",
                        "occu": 1
                    }
                ],
                "abc": [
                    0.28188402,
                    0.75,
                    0.8238012
                ],
                "xyz": [
                    1.828533449666781,
                    4.618454182500001,
                    8.301648072440257
                ],
                "label": "O",
                "properties": {}
            },
            {
                "species": [
                    {
                        "element": "O",
                        "occu": 1
                    }
                ],
                "abc": [
                    0.21811598,
                    0.25,
                    0.3238012
                ],
                "xyz": [
                    1.4148810753332188,
                    1.5394847275,
                    3.2630246324402563
                ],
                "label": "O",
                "properties": {}
            }
        ]
    },
    "spacegroup": {
        "source": "spglib",
        "symbol": "Pnma",
        "number": 62,
        "point_group": "mmm",
        "crystal_system": "orthorhombic",
        "hall": "-P 2ac 2n"
    },
    "dielectric": {
        "epsilon_ionic": [
            [
                6.39737697,
                4e-08,
                -1e-08
            ],
            [
                4e-08,
                25.83686809,
                -1e-08
            ],
            [
                -1e-08,
                -1e-08,
                5.44042976
            ]
        ],
        "epsilon_ionic_avg": 12.558224939999993,
        "epsilon_ionic_eig": [
            6.39737697,
            25.836868089999978,
            5.440429759999999
        ],
        "epsilon_electronic": [
            [
                2.98334883,
                -0.0,
                0.0
            ],
            [
                0.0,
                3.07080931,
                0.0
            ],
            [
                0.0,
                0.0,
                2.962232
            ]
        ],
        "epsilon_electronic_avg": 3.00546338,
        "epsilon_electronic_eig": [
            2.98334883,
            3.07080931,
            2.962232
        ]
    },
    "phonon": {
        "lowest_freq": -0.10541560647373399,
        "frequency": [
            -0.10541560647373399,
            -0.050206003871699274,
            -0.04941313220474649,
            1.4113935845748156,
            1.4158114660799408,
            1.7209600392746147,
            2.0082590618824474,
            2.0747935337755536,
            2.5210680197141992,
            2.631754244628961,
            2.7902394840235325,
            3.131649953420666,
            3.23835769661039,
            3.2622122575059116,
            3.437037975847963,
            3.498443759558264,
            3.504180448737493,
            3.57722585863776,
            3.7372618202063954,
            3.9095025635467433,
            4.079785607040989,
            4.2559860697176095,
            4.281792590220868,
            4.3935666367888375,
            4.920537380390621,
            4.930002592737523,
            4.973118813027172,
            5.001147481170465,
            5.007574487015472,
            5.444056946151789,
            5.4482068909000265,
            5.467660915733823,
            5.510711546759824,
            5.796383312907168,
            5.868092340577007,
            6.0496918981833625,
            6.107821133118462,
            6.243769589913372,
            6.388525459167696,
            6.405687816035815,
            6.567539750471287,
            6.6746291806050575,
            6.8415551949414395,
            7.047583816188315,
            7.069531226185297,
            7.148125488412425,
            7.266489606513265,
            7.300636724933639,
            7.496014843503094,
            7.538533307624595,
            7.754618136077601,
            7.8627350259788,
            8.011625824145941,
            8.129093465674982,
            8.141404546427635,
            8.28775431546637,
            8.305020499239605,
            8.605506402184462,
            8.733878488608866,
            8.9138771903784,
            9.035960097583988,
            9.052106323247564,
            9.269634112311346,
            9.34803585599881,
            9.553734374337596,
            9.77481375585391,
            9.79685810074,
            9.942812420100575,
            10.197186816911376,
            10.245013249904822,
            10.712785620184292,
            11.134220115330209,
            17.37809185692721,
            17.472255728682082,
            18.205885330724932,
            18.20921074765798,
            18.6349919213404,
            18.70252846928477,
            18.712359504621585,
            18.943478867254843,
            19.859683835539762,
            19.873618037119435,
            21.416167568233842,
            21.41728836310719
        ]
    },
    "born_effective_charge": {
        "avg_abs_trace": 1.5838333333333334,
        "tensors": [
            [
                [
                    1.27573,
                    0.0,
                    -0.0111
                ],
                [
                    -5e-05,
                    1.10982,
                    -5e-05
                ],
                [
                    -0.02587,
                    0.0,
                    1.00096
                ]
            ],
            [
                [
                    1.27585,
                    0.0,
                    0.01109
                ],
                [
                    5e-05,
                    1.10982,
                    -5e-05
                ],
                [
                    0.02587,
                    0.0,
                    1.00096
                ]
            ],
            [
                [
                    1.27585,
                    0.0,
                    -0.01109
                ],
                [
                    5e-05,
                    1.10982,
                    5e-05
                ],
                [
                    -0.02595,
                    0.0,
                    1.00091
                ]
            ],
            [
                [
                    1.27573,
                    0.0,
                    0.0111
                ],
                [
                    -5e-05,
                    1.10982,
                    5e-05
                ],
                [
                    0.02595,
                    0.0,
                    1.00091
                ]
            ],
            [
                [
                    0.95805,
                    0.03194,
                    -0.04213
                ],
                [
                    -0.05616,
                    0.95202,
                    0.01274
                ],
                [
                    -0.01292,
                    0.00559,
                    1.03783
                ]
            ],
            [
                [
                    0.95805,
                    0.03191,
                    0.04214
                ],
                [
                    -0.05617,
                    0.95201,
                    -0.01275
                ],
                [
                    0.01292,
                    -0.00559,
                    1.03783
                ]
            ],
            [
                [
                    0.95805,
                    0.03194,
                    0.04213
                ],
                [
                    -0.05616,
                    0.95202,
                    -0.01274
                ],
                [
                    0.01292,
                    -0.00559,
                    1.03784
                ]
            ],
            [
                [
                    0.95805,
                    -0.03194,
                    -0.04213
                ],
                [
                    0.05617,
                    0.95201,
                    -0.01275
                ],
                [
                    -0.01292,
                    -0.00559,
                    1.03783
                ]
            ],
            [
                [
                    0.95805,
                    0.03191,
                    -0.04214
                ],
                [
                    -0.05617,
                    0.95201,
                    0.01275
                ],
                [
                    -0.01292,
                    0.00559,
                    1.03784
                ]
            ],
            [
                [
                    0.95805,
                    -0.03191,
                    -0.04214
                ],
                [
                    0.05616,
                    0.95202,
                    -0.01274
                ],
                [
                    -0.01292,
                    -0.00559,
                    1.03784
                ]
            ],
            [
                [
                    0.95805,
                    -0.03191,
                    0.04214
                ],
                [
                    0.05616,
                    0.95202,
                    0.01274
                ],
                [
                    0.01292,
                    0.00559,
                    1.03783
                ]
            ],
            [
                [
                    0.95805,
                    -0.03194,
                    0.04213
                ],
                [
                    0.05617,
                    0.95201,
                    0.01275
                ],
                [
                    0.01292,
                    0.00559,
                    1.03784
                ]
            ],
            [
                [
                    2.33826,
                    0.0,
                    0.01326
                ],
                [
                    -4e-05,
                    2.7399,
                    -2e-05
                ],
                [
                    0.02089,
                    0.0,
                    2.26965
                ]
            ],
            [
                [
                    2.33826,
                    0.0,
                    -0.01326
                ],
                [
                    -4e-05,
                    2.7399,
                    2e-05
                ],
                [
                    -0.02083,
                    0.0,
                    2.26967
                ]
            ],
            [
                [
                    2.33845,
                    0.0,
                    -0.01299
                ],
                [
                    4e-05,
                    2.7399,
                    -2e-05
                ],
                [
                    -0.02089,
                    0.0,
                    2.26965
                ]
            ],
            [
                [
                    2.33845,
                    0.0,
                    0.01299
                ],
                [
                    4e-05,
                    2.7399,
                    2e-05
                ],
                [
                    0.02083,
                    0.0,
                    2.26967
                ]
            ],
            [
                [
                    -1.72769,
                    0.0,
                    0.31068
                ],
                [
                    -8e-05,
                    -1.47022,
                    8e-05
                ],
                [
                    0.17083,
                    0.0,
                    -2.14032
                ]
            ],
            [
                [
                    -1.96936,
                    0.72741,
                    -0.00632
                ],
                [
                    0.89588,
                    -2.69195,
                    0.10156
                ],
                [
                    -0.02231,
                    0.12065,
                    -1.23668
                ]
            ],
            [
                [
                    -1.96936,
                    -0.72741,
                    -0.00632
                ],
                [
                    -0.89588,
                    -2.69195,
                    -0.10156
                ],
                [
                    -0.02231,
                    -0.12065,
                    -1.23668
                ]
            ],
            [
                [
                    -1.83317,
                    0.0,
                    0.36549
                ],
                [
                    -0.0001,
                    -1.59157,
                    -9e-05
                ],
                [
                    0.238,
                    0.0,
                    -1.96926
                ]
            ],
            [
                [
                    -1.8332,
                    0.0,
                    0.36578
                ],
                [
                    0.0001,
                    -1.59157,
                    9e-05
                ],
                [
                    0.23792,
                    0.0,
                    -1.96925
                ]
            ],
            [
                [
                    -1.83317,
                    0.0,
                    -0.36549
                ],
                [
                    -0.0001,
                    -1.59157,
                    9e-05
                ],
                [
                    -0.23792,
                    0.0,
                    -1.96925
                ]
            ],
            [
                [
                    -1.8332,
                    0.0,
                    -0.36578
                ],
                [
                    0.0001,
                    -1.59157,
                    -9e-05
                ],
                [
                    -0.238,
                    0.0,
                    -1.96926
                ]
            ],
            [
                [
                    -1.7277,
                    0.0,
                    -0.31073
                ],
                [
                    8e-05,
                    -1.47022,
                    8e-05
                ],
                [
                    -0.17083,
                    0.0,
                    -2.14032
                ]
            ],
            [
                [
                    -1.96936,
                    -0.72741,
                    0.00632
                ],
                [
                    -0.89588,
                    -2.69195,
                    0.10156
                ],
                [
                    0.02231,
                    0.12065,
                    -1.23668
                ]
            ],
            [
                [
                    -1.96936,
                    0.72741,
                    0.00632
                ],
                [
                    0.89588,
                    -2.69195,
                    -0.10156
                ],
                [
                    0.02231,
                    -0.12065,
                    -1.23668
                ]
            ],
            [
                [
                    -1.7277,
                    0.0,
                    0.31073
                ],
                [
                    8e-05,
                    -1.47022,
                    -8e-05
                ],
                [
                    0.17087,
                    0.0,
                    -2.14033
                ]
            ],
            [
                [
                    -1.72769,
                    0.0,
                    -0.31068
                ],
                [
                    -8e-05,
                    -1.47022,
                    -8e-05
                ],
                [
                    -0.17087,
                    0.0,
                    -2.14033
                ]
            ]
        ]
    },
    "band_gap": 2.6479,
    "is_direct": true,
    "formula": "KNa2GaO3"
}