{
    "mp_id": "mp-1190195",
    "nelements": 4,
    "nsites": 24,
    "elements": [
        "In",
        "Li",
        "O",
        "W"
    ],
    "structure": {
        "@module": "pymatgen.core.structure",
        "@class": "Structure",
        "charge": null,
        "lattice": {
            "matrix": [
                [
                    4.79972622,
                    -5.81124176,
                    0.03006931
                ],
                [
                    4.79972622,
                    5.81124176,
                    0.03006931
                ],
                [
                    -0.16188003,
                    0.0,
                    4.98954719
                ]
            ],
            "a": 7.53716171668933,
            "b": 7.53716171668933,
            "c": 4.992172503564926,
            "alpha": 90.95472115348036,
            "beta": 90.95472115348036,
            "gamma": 100.88969666305422,
            "volume": 278.39716102835325
        },
        "sites": [
            {
                "species": [
                    {
                        "element": "Li",
                        "occu": 1
                    }
                ],
                "abc": [
                    0.84663695,
                    0.15336305,
                    0.25
                ],
                "xyz": [
                    4.7592562125,
                    -4.028782238798064,
                    1.2774561075
                ],
                "label": "Li",
                "properties": {}
            },
            {
                "species": [
                    {
                        "element": "Li",
                        "occu": 1
                    }
                ],
                "abc": [
                    0.15336305,
                    0.84663695,
                    0.75
                ],
                "xyz": [
                    4.6783161975,
                    4.028782238798064,
                    3.7722297025
                ],
                "label": "Li",
                "properties": {}
            },
            {
                "species": [
                    {
                        "element": "In",
                        "occu": 1
                    }
                ],
                "abc": [
                    0.33500571,
                    0.66499429,
                    0.25
                ],
                "xyz": [
                    4.7592562125,
                    1.9176434164191007,
                    1.2774561075
                ],
                "label": "In",
                "properties": {}
            },
            {
                "species": [
                    {
                        "element": "In",
                        "occu": 1
                    }
                ],
                "abc": [
                    0.66499429,
                    0.33500571,
                    0.75
                ],
                "xyz": [
                    4.6783161975,
                    -1.9176434164191007,
                    3.7722297025
                ],
                "label": "In",
                "properties": {}
            },
            {
                "species": [
                    {
                        "element": "W",
                        "occu": 1
                    }
                ],
                "abc": [
                    0.32914686,
                    0.1556937,
                    0.24932112
                ],
                "xyz": [
                    2.2867418379662494,
                    -1.0079782467959615,
                    1.2585783148028662
                ],
                "label": "W",
                "properties": {}
            },
            {
                "species": [
                    {
                        "element": "W",
                        "occu": 1
                    }
                ],
                "abc": [
                    0.8443063,
                    0.67085314,
                    0.25067888
                ],
                "xyz": [
                    7.2317705870337505,
                    -1.007978246795961,
                    1.2963339001971335
                ],
                "label": "W",
                "properties": {}
            },
            {
                "species": [
                    {
                        "element": "W",
                        "occu": 1
                    }
                ],
                "abc": [
                    0.67085314,
                    0.8443063,
                    0.75067888
                ],
                "xyz": [
                    7.15083057203375,
                    1.007978246795961,
                    3.7911074951971337
                ],
                "label": "W",
                "properties": {}
            },
            {
                "species": [
                    {
                        "element": "W",
                        "occu": 1
                    }
                ],
                "abc": [
                    0.1556937,
                    0.32914686,
                    0.74932112
                ],
                "xyz": [
                    2.2058018229662495,
                    1.0079782467959615,
                    3.753351909802866
                ],
                "label": "W",
                "properties": {}
            },
            {
                "species": [
                    {
                        "element": "O",
                        "occu": 1
                    }
                ],
                "abc": [
                    0.40636281,
                    0.304044,
                    0.93692201
                ],
                "xyz": [
                    3.258089229737098,
                    -0.5945993415055058,
                    4.696178024840653
                ],
                "label": "O",
                "properties": {}
            },
            {
                "species": [
                    {
                        "element": "O",
                        "occu": 1
                    }
                ],
                "abc": [
                    0.695956,
                    0.59363719,
                    0.56307799
                ],
                "xyz": [
                    6.098543165262902,
                    -0.5945993415055058,
                    2.848281380159347
                ],
                "label": "O",
                "properties": {}
            },
            {
                "species": [
                    {
                        "element": "O",
                        "occu": 1
                    }
                ],
                "abc": [
                    0.59363719,
                    0.695956,
                    0.06307799
                ],
                "xyz": [
                    6.179483180262903,
                    0.5945993415055058,
                    0.35350778515934694
                ],
                "label": "O",
                "properties": {}
            },
            {
                "species": [
                    {
                        "element": "O",
                        "occu": 1
                    }
                ],
                "abc": [
                    0.304044,
                    0.40636281,
                    0.43692201
                ],
                "xyz": [
                    3.3390292447370977,
                    0.5945993415055058,
                    2.201404429840653
                ],
                "label": "O",
                "properties": {}
            },
            {
                "species": [
                    {
                        "element": "O",
                        "occu": 1
                    }
                ],
                "abc": [
                    0.55549991,
                    0.18709382,
                    0.39035031
                ],
                "xyz": [
                    3.501056676795291,
                    -2.1408968548463183,
                    1.970000573447555
                ],
                "label": "O",
                "properties": {}
            },
            {
                "species": [
                    {
                        "element": "O",
                        "occu": 1
                    }
                ],
                "abc": [
                    0.81290618,
                    0.44450009,
                    0.10964969
                ],
                "xyz": [
                    6.017455748204709,
                    -2.1408968548463188,
                    0.5849116415524448
                ],
                "label": "O",
                "properties": {}
            },
            {
                "species": [
                    {
                        "element": "O",
                        "occu": 1
                    }
                ],
                "abc": [
                    0.44450009,
                    0.81290618,
                    0.60964969
                ],
                "xyz": [
                    5.936515733204709,
                    2.1408968548463188,
                    3.0796852365524447
                ],
                "label": "O",
                "properties": {}
            },
            {
                "species": [
                    {
                        "element": "O",
                        "occu": 1
                    }
                ],
                "abc": [
                    0.18709382,
                    0.55549991,
                    0.89035031
                ],
                "xyz": [
                    3.420116661795291,
                    2.1408968548463183,
                    4.464774168447555
                ],
                "label": "O",
                "properties": {}
            },
            {
                "species": [
                    {
                        "element": "O",
                        "occu": 1
                    }
                ],
                "abc": [
                    0.9071155,
                    0.8053046,
                    0.94093102
                ],
                "xyz": [
                    8.06682971187949,
                    -0.5916477537031835,
                    4.746311017661964
                ],
                "label": "O",
                "properties": {}
            },
            {
                "species": [
                    {
                        "element": "O",
                        "occu": 1
                    }
                ],
                "abc": [
                    0.1946954,
                    0.0928845,
                    0.55906898
                ],
                "xyz": [
                    1.2898026831205085,
                    -0.591647753703184,
                    2.7981483873380353
                ],
                "label": "O",
                "properties": {}
            },
            {
                "species": [
                    {
                        "element": "O",
                        "occu": 1
                    }
                ],
                "abc": [
                    0.0928845,
                    0.1946954,
                    0.05906898
                ],
                "xyz": [
                    1.3707426981205086,
                    0.591647753703184,
                    0.30337479233803516
                ],
                "label": "O",
                "properties": {}
            },
            {
                "species": [
                    {
                        "element": "O",
                        "occu": 1
                    }
                ],
                "abc": [
                    0.8053046,
                    0.9071155,
                    0.44093102
                ],
                "xyz": [
                    8.147769726879492,
                    0.5916477537031835,
                    2.251537422661965
                ],
                "label": "O",
                "properties": {}
            },
            {
                "species": [
                    {
                        "element": "O",
                        "occu": 1
                    }
                ],
                "abc": [
                    0.06588888,
                    0.69300899,
                    0.40025397
                ],
                "xyz": [
                    3.5777088802699324,
                    3.6443465717677936,
                    2.0199056066112138
                ],
                "label": "O",
                "properties": {}
            },
            {
                "species": [
                    {
                        "element": "O",
                        "occu": 1
                    }
                ],
                "abc": [
                    0.30699101,
                    0.93411112,
                    0.09974603
                ],
                "xyz": [
                    5.940803544730068,
                    3.6443465717677936,
                    0.535006608388786
                ],
                "label": "O",
                "properties": {}
            },
            {
                "species": [
                    {
                        "element": "O",
                        "occu": 1
                    }
                ],
                "abc": [
                    0.93411112,
                    0.30699101,
                    0.59974603
                ],
                "xyz": [
                    5.859863529730068,
                    -3.6443465717677936,
                    3.029780203388786
                ],
                "label": "O",
                "properties": {}
            },
            {
                "species": [
                    {
                        "element": "O",
                        "occu": 1
                    }
                ],
                "abc": [
                    0.69300899,
                    0.06588888,
                    0.90025397
                ],
                "xyz": [
                    3.4967688652699325,
                    -3.6443465717677936,
                    4.514679201611213
                ],
                "label": "O",
                "properties": {}
            }
        ]
    },
    "spacegroup": {
        "source": "spglib",
        "symbol": "C2/c",
        "number": 15,
        "point_group": "2/m",
        "crystal_system": "monoclinic",
        "hall": "-C 2yc"
    },
    "dielectric": {
        "epsilon_ionic": [
            [
                10.13036774,
                1e-08,
                0.9354728
            ],
            [
                1e-08,
                9.22604868,
                -0.0
            ],
            [
                0.9354728,
                -0.0,
                13.25271877
            ]
        ],
        "epsilon_ionic_avg": 10.86971173,
        "epsilon_ionic_eig": [
            13.511537306686805,
            9.871549203313196,
            9.226048680000002
        ],
        "epsilon_electronic": [
            [
                4.3114352,
                0.0,
                0.12722521
            ],
            [
                0.0,
                4.55351489,
                0.0
            ],
            [
                0.12722486,
                0.0,
                5.08761669
            ]
        ],
        "epsilon_electronic_avg": 4.650855593333333,
        "epsilon_electronic_eig": [
            4.291113609381479,
            5.107938280618521,
            4.55351489
        ]
    },
    "phonon": {
        "lowest_freq": -0.028624716029554253,
        "frequency": [
            -0.028624716029554253,
            -0.027961811187497774,
            -0.026229762718939946,
            2.0459345272048663,
            2.151354899663733,
            2.5646689752919922,
            2.81596814513363,
            3.318867292562038,
            3.855139259911784,
            4.006509697404045,
            4.016155327096399,
            4.246194087846428,
            5.042276973327324,
            5.118515926350589,
            5.28863374870468,
            5.292987954370778,
            5.504209924401688,
            5.898808795536363,
            6.269915690746269,
            6.3651133369226685,
            6.4005234359812935,
            6.629762557829381,
            7.12489667297757,
            7.157646687406107,
            7.4602799541718605,
            7.470998216803204,
            7.6901964312327244,
            7.998576243068168,
            8.028926517869698,
            8.144950131955632,
            8.317760496255532,
            8.56686832750712,
            8.953927298138934,
            8.99516670744887,
            9.486047315588925,
            9.705858991438909,
            9.773313807970341,
            10.061606939847866,
            10.072869896982667,
            10.425627319059535,
            10.582424819427464,
            10.641310818958766,
            10.99728027752818,
            11.898761528310802,
            12.018178661870454,
            12.359718212234949,
            12.814303053228386,
            12.90047948691869,
            13.917732249802146,
            13.931459703977866,
            14.421764732606231,
            14.722894830162037,
            15.513746541489454,
            15.609996237515587,
            15.657405993611542,
            16.094801399738706,
            17.50511422660498,
            18.28489621173427,
            19.09146693999457,
            19.764458363602884,
            20.106602516840677,
            20.185454687439655,
            20.44429461091417,
            20.63001967696598,
            21.977216161341453,
            22.132061610775047,
            22.57365828436118,
            24.513942405835632,
            24.533123009403116,
            25.618874878646466,
            25.70992650492994,
            26.056326517902004
        ]
    },
    "born_effective_charge": {
        "avg_abs_trace": 2.925736527777778,
        "tensors": [
            [
                [
                    1.70489,
                    -2e-05,
                    0.08073
                ],
                [
                    0.0,
                    1.24951,
                    0.0
                ],
                [
                    -0.01327,
                    5e-05,
                    1.29452
                ]
            ],
            [
                [
                    1.70489,
                    2e-05,
                    0.08073
                ],
                [
                    0.0,
                    1.24951,
                    0.0
                ],
                [
                    -0.01327,
                    -5e-05,
                    1.29452
                ]
            ],
            [
                [
                    4.88938,
                    -6e-05,
                    0.07183
                ],
                [
                    0.0,
                    4.13811,
                    0.0
                ],
                [
                    0.22727,
                    0.0001,
                    3.68698
                ]
            ],
            [
                [
                    4.88938,
                    6e-05,
                    0.07183
                ],
                [
                    0.0,
                    4.13808,
                    0.0
                ],
                [
                    0.22727,
                    -0.0001,
                    3.68698
                ]
            ],
            [
                [
                    4.62348,
                    0.31856,
                    0.30419
                ],
                [
                    -0.22919,
                    5.81566,
                    0.71141
                ],
                [
                    0.31622,
                    -0.71141,
                    7.41096
                ]
            ],
            [
                [
                    4.6233,
                    -0.31873,
                    0.3045
                ],
                [
                    0.22919,
                    5.81566,
                    -0.71141
                ],
                [
                    0.31626,
                    0.71116,
                    7.41055
                ]
            ],
            [
                [
                    4.6233,
                    0.31873,
                    0.3045
                ],
                [
                    -0.2292,
                    5.81594,
                    0.71148
                ],
                [
                    0.31626,
                    -0.71116,
                    7.41055
                ]
            ],
            [
                [
                    4.62348,
                    -0.31856,
                    0.30419
                ],
                [
                    0.2292,
                    5.81594,
                    -0.71148
                ],
                [
                    0.31622,
                    0.71141,
                    7.41096
                ]
            ],
            [
                [
                    -1.91175,
                    0.38894,
                    0.64212
                ],
                [
                    0.43712,
                    -1.85158,
                    0.47295
                ],
                [
                    0.82615,
                    0.75099,
                    -3.12876
                ]
            ],
            [
                [
                    -1.91162,
                    -0.38891,
                    0.642
                ],
                [
                    -0.43712,
                    -1.85158,
                    -0.47295
                ],
                [
                    0.82625,
                    -0.75092,
                    -3.12917
                ]
            ],
            [
                [
                    -1.91162,
                    0.38891,
                    0.642
                ],
                [
                    0.43705,
                    -1.85166,
                    0.47288
                ],
                [
                    0.82625,
                    0.75092,
                    -3.12917
                ]
            ],
            [
                [
                    -1.91175,
                    -0.38894,
                    0.64212
                ],
                [
                    -0.43705,
                    -1.85166,
                    -0.47288
                ],
                [
                    0.82615,
                    -0.75099,
                    -3.12876
                ]
            ],
            [
                [
                    -2.17391,
                    0.86486,
                    -0.87778
                ],
                [
                    1.24304,
                    -2.01,
                    0.81603
                ],
                [
                    -1.16705,
                    0.66356,
                    -1.97301
                ]
            ],
            [
                [
                    -2.17392,
                    -0.86476,
                    -0.87768
                ],
                [
                    -1.24304,
                    -2.01,
                    -0.81603
                ],
                [
                    -1.16737,
                    -0.66397,
                    -1.97323
                ]
            ],
            [
                [
                    -2.17392,
                    0.86476,
                    -0.87768
                ],
                [
                    1.24317,
                    -2.01013,
                    0.81614
                ],
                [
                    -1.16737,
                    0.66397,
                    -1.97323
                ]
            ],
            [
                [
                    -2.17391,
                    -0.86486,
                    -0.87778
                ],
                [
                    -1.24317,
                    -2.01013,
                    -0.81614
                ],
                [
                    -1.16705,
                    -0.66356,
                    -1.97301
                ]
            ],
            [
                [
                    -1.46896,
                    0.25274,
                    0.46901
                ],
                [
                    0.10288,
                    -1.88313,
                    1.12256
                ],
                [
                    0.63529,
                    1.38784,
                    -3.37122
                ]
            ],
            [
                [
                    -1.46926,
                    -0.25282,
                    0.46936
                ],
                [
                    -0.10288,
                    -1.88313,
                    -1.12256
                ],
                [
                    0.63538,
                    -1.38805,
                    -3.3718
                ]
            ],
            [
                [
                    -1.46926,
                    0.25282,
                    0.46936
                ],
                [
                    0.10285,
                    -1.88299,
                    1.12259
                ],
                [
                    0.63538,
                    1.38805,
                    -3.3718
                ]
            ],
            [
                [
                    -1.46896,
                    -0.25274,
                    0.46901
                ],
                [
                    -0.10285,
                    -1.88299,
                    -1.12259
                ],
                [
                    0.63529,
                    -1.38784,
                    -3.37122
                ]
            ],
            [
                [
                    -2.36588,
                    1.45455,
                    -0.61425
                ],
                [
                    1.53817,
                    -2.76477,
                    0.65413
                ],
                [
                    -0.71753,
                    0.49917,
                    -1.4278
                ]
            ],
            [
                [
                    -2.36575,
                    -1.45421,
                    -0.61403
                ],
                [
                    -1.53817,
                    -2.76477,
                    -0.65413
                ],
                [
                    -0.71762,
                    -0.49944,
                    -1.42801
                ]
            ],
            [
                [
                    -2.36575,
                    1.45421,
                    -0.61403
                ],
                [
                    1.53819,
                    -2.76494,
                    0.65427
                ],
                [
                    -0.71762,
                    0.49944,
                    -1.42801
                ]
            ],
            [
                [
                    -2.36588,
                    -1.45455,
                    -0.61425
                ],
                [
                    -1.53819,
                    -2.76494,
                    -0.65427
                ],
                [
                    -0.71753,
                    -0.49917,
                    -1.4278
                ]
            ]
        ]
    },
    "band_gap": 3.3116000000000003,
    "is_direct": false,
    "formula": "LiIn(WO4)2"
}