{
    "mp_id": "mp-17986",
    "nelements": 3,
    "nsites": 24,
    "elements": [
        "O",
        "Ti",
        "Tl"
    ],
    "structure": {
        "@module": "pymatgen.core.structure",
        "@class": "Structure",
        "charge": null,
        "lattice": {
            "matrix": [
                [
                    12.4476282,
                    0.0,
                    0.0
                ],
                [
                    0.0,
                    3.84360588,
                    0.0
                ],
                [
                    0.0,
                    0.0,
                    9.60851015
                ]
            ],
            "a": 12.4476282,
            "b": 3.84360588,
            "c": 9.60851015,
            "alpha": 90.0,
            "beta": 90.0,
            "gamma": 90.0,
            "volume": 459.70741635744804
        },
        "sites": [
            {
                "species": [
                    {
                        "element": "Ti",
                        "occu": 1
                    }
                ],
                "abc": [
                    0.905064,
                    0.75,
                    0.45512664
                ],
                "xyz": [
                    11.2659001692048,
                    2.88270441,
                    4.373088939975396
                ],
                "label": "Ti",
                "properties": {}
            },
            {
                "species": [
                    {
                        "element": "Ti",
                        "occu": 1
                    }
                ],
                "abc": [
                    0.594936,
                    0.25,
                    0.95512664
                ],
                "xyz": [
                    7.405542130795201,
                    0.96090147,
                    9.177344014975397
                ],
                "label": "Ti",
                "properties": {}
            },
            {
                "species": [
                    {
                        "element": "Ti",
                        "occu": 1
                    }
                ],
                "abc": [
                    0.094936,
                    0.25,
                    0.54487336
                ],
                "xyz": [
                    1.1817280307952,
                    0.96090147,
                    5.2354212100246045
                ],
                "label": "Ti",
                "properties": {}
            },
            {
                "species": [
                    {
                        "element": "Ti",
                        "occu": 1
                    }
                ],
                "abc": [
                    0.405064,
                    0.75,
                    0.04487336
                ],
                "xyz": [
                    5.0420860692047995,
                    2.88270441,
                    0.43116613502460405
                ],
                "label": "Ti",
                "properties": {}
            },
            {
                "species": [
                    {
                        "element": "Tl",
                        "occu": 1
                    }
                ],
                "abc": [
                    0.34439974,
                    0.25,
                    0.7480849
                ],
                "xyz": [
                    4.286959915696668,
                    0.96090147,
                    7.187981354711736
                ],
                "label": "Tl",
                "properties": {}
            },
            {
                "species": [
                    {
                        "element": "Tl",
                        "occu": 1
                    }
                ],
                "abc": [
                    0.84439974,
                    0.25,
                    0.7519151
                ],
                "xyz": [
                    10.510774015696668,
                    0.96090147,
                    7.224783870288265
                ],
                "label": "Tl",
                "properties": {}
            },
            {
                "species": [
                    {
                        "element": "Tl",
                        "occu": 1
                    }
                ],
                "abc": [
                    0.15560026,
                    0.75,
                    0.2480849
                ],
                "xyz": [
                    1.936854184303332,
                    2.88270441,
                    2.3837262797117353
                ],
                "label": "Tl",
                "properties": {}
            },
            {
                "species": [
                    {
                        "element": "Tl",
                        "occu": 1
                    }
                ],
                "abc": [
                    0.65560026,
                    0.75,
                    0.2519151
                ],
                "xyz": [
                    8.160668284303332,
                    2.88270441,
                    2.420528795288265
                ],
                "label": "Tl",
                "properties": {}
            },
            {
                "species": [
                    {
                        "element": "Tl",
                        "occu": 1
                    }
                ],
                "abc": [
                    0.40404675,
                    0.25,
                    0.37254581
                ],
                "xyz": [
                    5.02942371941835,
                    0.96090147,
                    3.5796101967249716
                ],
                "label": "Tl",
                "properties": {}
            },
            {
                "species": [
                    {
                        "element": "Tl",
                        "occu": 1
                    }
                ],
                "abc": [
                    0.59595325,
                    0.75,
                    0.62745419
                ],
                "xyz": [
                    7.41820448058165,
                    2.88270441,
                    6.02889995327503
                ],
                "label": "Tl",
                "properties": {}
            },
            {
                "species": [
                    {
                        "element": "Tl",
                        "occu": 1
                    }
                ],
                "abc": [
                    0.09595325,
                    0.75,
                    0.87254581
                ],
                "xyz": [
                    1.19439038058165,
                    2.88270441,
                    8.383865271724972
                ],
                "label": "Tl",
                "properties": {}
            },
            {
                "species": [
                    {
                        "element": "Tl",
                        "occu": 1
                    }
                ],
                "abc": [
                    0.90404675,
                    0.25,
                    0.12745419
                ],
                "xyz": [
                    11.25323781941835,
                    0.96090147,
                    1.2246448782750285
                ],
                "label": "Tl",
                "properties": {}
            },
            {
                "species": [
                    {
                        "element": "O",
                        "occu": 1
                    }
                ],
                "abc": [
                    0.44699022,
                    0.25,
                    0.04816982
                ],
                "xyz": [
                    5.563968067596204,
                    0.96090147,
                    0.46284020439367307
                ],
                "label": "O",
                "properties": {}
            },
            {
                "species": [
                    {
                        "element": "O",
                        "occu": 1
                    }
                ],
                "abc": [
                    0.55300978,
                    0.75,
                    0.95183018
                ],
                "xyz": [
                    6.883660132403796,
                    2.88270441,
                    9.145669945606327
                ],
                "label": "O",
                "properties": {}
            },
            {
                "species": [
                    {
                        "element": "O",
                        "occu": 1
                    }
                ],
                "abc": [
                    0.05300978,
                    0.75,
                    0.54816982
                ],
                "xyz": [
                    0.659846032403796,
                    2.88270441,
                    5.267095279393674
                ],
                "label": "O",
                "properties": {}
            },
            {
                "species": [
                    {
                        "element": "O",
                        "occu": 1
                    }
                ],
                "abc": [
                    0.94699022,
                    0.25,
                    0.45183018
                ],
                "xyz": [
                    11.787782167596204,
                    0.96090147,
                    4.341414870606328
                ],
                "label": "O",
                "properties": {}
            },
            {
                "species": [
                    {
                        "element": "O",
                        "occu": 1
                    }
                ],
                "abc": [
                    0.20152498,
                    0.25,
                    0.41470746
                ],
                "xyz": [
                    2.508508024052436,
                    0.96090147,
                    3.9847208386907194
                ],
                "label": "O",
                "properties": {}
            },
            {
                "species": [
                    {
                        "element": "O",
                        "occu": 1
                    }
                ],
                "abc": [
                    0.79847502,
                    0.75,
                    0.58529254
                ],
                "xyz": [
                    9.939120175947565,
                    2.88270441,
                    5.623789311309281
                ],
                "label": "O",
                "properties": {}
            },
            {
                "species": [
                    {
                        "element": "O",
                        "occu": 1
                    }
                ],
                "abc": [
                    0.29847502,
                    0.75,
                    0.91470746
                ],
                "xyz": [
                    3.715306075947564,
                    2.88270441,
                    8.78897591369072
                ],
                "label": "O",
                "properties": {}
            },
            {
                "species": [
                    {
                        "element": "O",
                        "occu": 1
                    }
                ],
                "abc": [
                    0.84659038,
                    0.75,
                    0.27657045
                ],
                "xyz": [
                    10.538042287936715,
                    2.88270441,
                    2.657429976015068
                ],
                "label": "O",
                "properties": {}
            },
            {
                "species": [
                    {
                        "element": "O",
                        "occu": 1
                    }
                ],
                "abc": [
                    0.34659038,
                    0.75,
                    0.22342955
                ],
                "xyz": [
                    4.314228187936716,
                    2.88270441,
                    2.146825098984933
                ],
                "label": "O",
                "properties": {}
            },
            {
                "species": [
                    {
                        "element": "O",
                        "occu": 1
                    }
                ],
                "abc": [
                    0.65340962,
                    0.25,
                    0.77657045
                ],
                "xyz": [
                    8.133400012063285,
                    0.96090147,
                    7.461685051015069
                ],
                "label": "O",
                "properties": {}
            },
            {
                "species": [
                    {
                        "element": "O",
                        "occu": 1
                    }
                ],
                "abc": [
                    0.15340962,
                    0.25,
                    0.72342955
                ],
                "xyz": [
                    1.909585912063284,
                    0.96090147,
                    6.951080173984932
                ],
                "label": "O",
                "properties": {}
            },
            {
                "species": [
                    {
                        "element": "O",
                        "occu": 1
                    }
                ],
                "abc": [
                    0.70152498,
                    0.25,
                    0.08529254
                ],
                "xyz": [
                    8.732322124052436,
                    0.96090147,
                    0.819534236309281
                ],
                "label": "O",
                "properties": {}
            }
        ]
    },
    "spacegroup": {
        "source": "spglib",
        "symbol": "Pnma",
        "number": 62,
        "point_group": "mmm",
        "crystal_system": "orthorhombic",
        "hall": "-P 2ac 2n"
    },
    "dielectric": {
        "epsilon_ionic": [
            [
                8.00690385,
                4.7e-07,
                -7e-08
            ],
            [
                4.7e-07,
                9.75255468,
                -3.3e-07
            ],
            [
                -7e-08,
                -3.3e-07,
                8.0350144
            ]
        ],
        "epsilon_ionic_avg": 8.598157643333328,
        "epsilon_ionic_eig": [
            8.006903849999695,
            9.75255468000018,
            8.03501440000011
        ],
        "epsilon_electronic": [
            [
                5.73685852,
                0.0,
                0.0
            ],
            [
                0.0,
                5.47977321,
                0.0
            ],
            [
                0.0,
                0.0,
                6.20006604
            ]
        ],
        "epsilon_electronic_avg": 5.805565923333333,
        "epsilon_electronic_eig": [
            5.73685852,
            5.47977321,
            6.20006604
        ]
    },
    "phonon": {
        "lowest_freq": -0.030214414505509202,
        "frequency": [
            -0.030214414505509202,
            -0.02864503644987051,
            -0.020954640537481438,
            0.6347602126390901,
            0.7148379008701229,
            0.887211825814768,
            0.963860346206268,
            1.010917603393854,
            1.0582203233009302,
            1.069162635872041,
            1.1162088710503797,
            1.1225439274158038,
            1.3856767913516337,
            1.4083192517257725,
            1.4379471042511287,
            1.4490821812826986,
            1.4906653642888075,
            1.5743786251577667,
            1.914315659058494,
            1.9181123660361945,
            2.1022297791874696,
            2.4338400486991407,
            2.4850976754311556,
            2.7858068537342793,
            2.8169748946869984,
            2.848469196120078,
            2.9348089015933803,
            3.0501376172621915,
            3.2854757236313703,
            3.739048802596272,
            3.788088884581851,
            3.9351137597603802,
            5.50028421813378,
            5.61496763998911,
            6.016018865933551,
            6.128660098625906,
            6.286023462048386,
            6.755653778439352,
            6.948043185434212,
            6.9589326563269465,
            7.011260886117351,
            7.0378722923793955,
            7.171830854463298,
            7.5661411182455405,
            7.86694870569238,
            7.917963541455363,
            8.03237514118559,
            8.071083904156392,
            8.230516203514451,
            8.37574359519008,
            9.005281810243693,
            9.117209625113334,
            9.680371244926155,
            10.445350024736877,
            10.500938783413648,
            11.574615908930777,
            14.884875164667534,
            14.892608324802055,
            15.411116294911585,
            15.41424847248831,
            15.751003844123797,
            16.5563467567194,
            18.676128579814705,
            18.964105979418093,
            19.59171120047178,
            19.892511753957503,
            19.893979758327518,
            20.713218516630036,
            21.30281337623607,
            22.332662350637452,
            22.913181910678723,
            23.006296066231286
        ]
    },
    "born_effective_charge": {
        "avg_abs_trace": 2.737932222222222,
        "tensors": [
            [
                [
                    3.55766,
                    0.0,
                    0.1729
                ],
                [
                    0.00223,
                    4.8494,
                    9e-05
                ],
                [
                    -0.09388,
                    -0.0,
                    5.38251
                ]
            ],
            [
                [
                    3.55739,
                    0.0,
                    -0.17258
                ],
                [
                    -0.00223,
                    4.8494,
                    9e-05
                ],
                [
                    0.09388,
                    -0.0,
                    5.38251
                ]
            ],
            [
                [
                    3.55739,
                    0.0,
                    0.17258
                ],
                [
                    -0.00223,
                    4.8494,
                    -9e-05
                ],
                [
                    -0.09394,
                    0.0,
                    5.3827
                ]
            ],
            [
                [
                    3.55766,
                    0.0,
                    -0.1729
                ],
                [
                    0.00223,
                    4.8494,
                    -9e-05
                ],
                [
                    0.09394,
                    0.0,
                    5.3827
                ]
            ],
            [
                [
                    2.28509,
                    0.0,
                    0.05542
                ],
                [
                    0.00036,
                    1.53799,
                    3e-05
                ],
                [
                    -0.02106,
                    0.0,
                    1.50073
                ]
            ],
            [
                [
                    2.28509,
                    0.0,
                    -0.05542
                ],
                [
                    0.00036,
                    1.53799,
                    -3e-05
                ],
                [
                    0.02088,
                    -0.0,
                    1.50103
                ]
            ],
            [
                [
                    2.28505,
                    0.0,
                    -0.05544
                ],
                [
                    -0.00036,
                    1.53799,
                    3e-05
                ],
                [
                    0.02106,
                    0.0,
                    1.50073
                ]
            ],
            [
                [
                    2.28505,
                    0.0,
                    0.05544
                ],
                [
                    -0.00036,
                    1.53799,
                    -3e-05
                ],
                [
                    -0.02088,
                    -0.0,
                    1.50103
                ]
            ],
            [
                [
                    1.98194,
                    0.0,
                    0.22889
                ],
                [
                    0.00074,
                    1.83094,
                    -0.00017
                ],
                [
                    0.26075,
                    -0.0,
                    1.71479
                ]
            ],
            [
                [
                    1.982,
                    0.0,
                    0.2288
                ],
                [
                    -0.00074,
                    1.83094,
                    0.00017
                ],
                [
                    0.26105,
                    -0.0,
                    1.71525
                ]
            ],
            [
                [
                    1.982,
                    0.0,
                    -0.2288
                ],
                [
                    -0.00074,
                    1.83094,
                    -0.00017
                ],
                [
                    -0.26075,
                    -0.0,
                    1.71479
                ]
            ],
            [
                [
                    1.98194,
                    0.0,
                    -0.22889
                ],
                [
                    0.00074,
                    1.83094,
                    0.00017
                ],
                [
                    -0.26105,
                    -0.0,
                    1.71525
                ]
            ],
            [
                [
                    -2.12567,
                    0.0,
                    0.38208
                ],
                [
                    -0.00147,
                    -4.42549,
                    -0.00061
                ],
                [
                    0.51719,
                    -0.0,
                    -1.46194
                ]
            ],
            [
                [
                    -2.12564,
                    0.0,
                    0.38229
                ],
                [
                    0.00147,
                    -4.42549,
                    0.00061
                ],
                [
                    0.51713,
                    -0.0,
                    -1.46196
                ]
            ],
            [
                [
                    -2.12564,
                    0.0,
                    -0.38229
                ],
                [
                    0.00147,
                    -4.42549,
                    -0.00061
                ],
                [
                    -0.51719,
                    -0.0,
                    -1.46194
                ]
            ],
            [
                [
                    -2.12567,
                    0.0,
                    -0.38208
                ],
                [
                    -0.00147,
                    -4.42549,
                    0.00061
                ],
                [
                    -0.51713,
                    -0.0,
                    -1.46196
                ]
            ],
            [
                [
                    -2.90436,
                    -0.0,
                    0.96027
                ],
                [
                    0.00039,
                    -1.74854,
                    -0.00065
                ],
                [
                    1.58414,
                    -0.0,
                    -3.11751
                ]
            ],
            [
                [
                    -2.90434,
                    -0.0,
                    0.96029
                ],
                [
                    -0.00039,
                    -1.74854,
                    0.00065
                ],
                [
                    1.58356,
                    -0.0,
                    -3.11782
                ]
            ],
            [
                [
                    -2.90434,
                    0.0,
                    -0.96029
                ],
                [
                    -0.00039,
                    -1.74854,
                    -0.00065
                ],
                [
                    -1.58414,
                    -0.0,
                    -3.11751
                ]
            ],
            [
                [
                    -2.79439,
                    0.0,
                    -0.61576
                ],
                [
                    0.00013,
                    -2.04428,
                    -0.00104
                ],
                [
                    -0.78431,
                    0.0,
                    -4.01887
                ]
            ],
            [
                [
                    -2.79439,
                    0.0,
                    0.61576
                ],
                [
                    0.00013,
                    -2.04428,
                    0.00104
                ],
                [
                    0.78391,
                    0.0,
                    -4.01891
                ]
            ],
            [
                [
                    -2.79473,
                    0.0,
                    0.61558
                ],
                [
                    -0.00013,
                    -2.04428,
                    -0.00104
                ],
                [
                    0.78431,
                    0.0,
                    -4.01887
                ]
            ],
            [
                [
                    -2.79473,
                    0.0,
                    -0.61558
                ],
                [
                    -0.00013,
                    -2.04428,
                    0.00104
                ],
                [
                    -0.78391,
                    0.0,
                    -4.01891
                ]
            ],
            [
                [
                    -2.90436,
                    0.0,
                    -0.96027
                ],
                [
                    0.00039,
                    -1.74854,
                    0.00065
                ],
                [
                    -1.58356,
                    -0.0,
                    -3.11782
                ]
            ]
        ]
    },
    "band_gap": 2.0848000000000004,
    "is_direct": false,
    "formula": "TiTl2O3"
}