{
    "mp_id": "mp-11737",
    "nelements": 3,
    "nsites": 18,
    "elements": [
        "Li",
        "O",
        "Si"
    ],
    "structure": {
        "@module": "pymatgen.core.structure",
        "@class": "Structure",
        "charge": null,
        "lattice": {
            "matrix": [
                [
                    5.00660649,
                    0.00024032,
                    0.0003642
                ],
                [
                    1.85308141,
                    4.65677713,
                    0.00022468
                ],
                [
                    2.44074667,
                    0.05930276,
                    7.0928556
                ]
            ],
            "a": 5.006606509014411,
            "b": 5.011934157693986,
            "c": 7.501290668072467,
            "alpha": 82.66383409814729,
            "beta": 71.00739860924651,
            "gamma": 68.29804928159308,
            "volume": 165.36012534587863
        },
        "sites": [
            {
                "species": [
                    {
                        "element": "Li",
                        "occu": 1
                    }
                ],
                "abc": [
                    0.76160233,
                    0.73627676,
                    0.00645697
                ],
                "xyz": [
                    5.193183772773944,
                    3.4292427217326815,
                    0.0462411580545548
                ],
                "label": "Li",
                "properties": {}
            },
            {
                "species": [
                    {
                        "element": "Li",
                        "occu": 1
                    }
                ],
                "abc": [
                    0.23839767,
                    0.26372324,
                    0.99354303
                ],
                "xyz": [
                    4.107250797226056,
                    1.2870774882673184,
                    7.047203321945445
                ],
                "label": "Li",
                "properties": {}
            },
            {
                "species": [
                    {
                        "element": "Li",
                        "occu": 1
                    }
                ],
                "abc": [
                    0.51181713,
                    0.76310779,
                    0.44301217
                ],
                "xyz": [
                    5.057848302923332,
                    3.5800177484841136,
                    3.142579209709655
                ],
                "label": "Li",
                "properties": {}
            },
            {
                "species": [
                    {
                        "element": "Li",
                        "occu": 1
                    }
                ],
                "abc": [
                    0.48818287,
                    0.23689221,
                    0.55698783
                ],
                "xyz": [
                    4.2425862670766685,
                    1.1363024615158863,
                    3.9508652702903446
                ],
                "label": "Li",
                "properties": {}
            },
            {
                "species": [
                    {
                        "element": "Li",
                        "occu": 1
                    }
                ],
                "abc": [
                    0.0758604,
                    0.24962855,
                    0.40770055
                ],
                "xyz": [
                    1.83747895615392,
                    1.1866605212749075,
                    2.891844844090874
                ],
                "label": "Li",
                "properties": {}
            },
            {
                "species": [
                    {
                        "element": "Li",
                        "occu": 1
                    }
                ],
                "abc": [
                    0.9241396,
                    0.75037145,
                    0.59229945
                ],
                "xyz": [
                    7.462955613846079,
                    3.5296596887250926,
                    4.201599635909125
                ],
                "label": "Li",
                "properties": {}
            },
            {
                "species": [
                    {
                        "element": "Li",
                        "occu": 1
                    }
                ],
                "abc": [
                    0.6116191,
                    0.21397957,
                    0.19335678
                ],
                "xyz": [
                    3.930592635661675,
                    1.008068742884059,
                    1.3717225484269757
                ],
                "label": "Li",
                "properties": {}
            },
            {
                "species": [
                    {
                        "element": "Li",
                        "occu": 1
                    }
                ],
                "abc": [
                    0.3883809,
                    0.78602043,
                    0.80664322
                ],
                "xyz": [
                    5.369841934338324,
                    3.7082514671159412,
                    5.7217219315730246
                ],
                "label": "Li",
                "properties": {}
            },
            {
                "species": [
                    {
                        "element": "Si",
                        "occu": 1
                    }
                ],
                "abc": [
                    0.84070822,
                    0.21844162,
                    0.76306428
                ],
                "xyz": [
                    6.47633193604658,
                    1.0626877971169937,
                    5.412660016954874
                ],
                "label": "Si",
                "properties": {}
            },
            {
                "species": [
                    {
                        "element": "Si",
                        "occu": 1
                    }
                ],
                "abc": [
                    0.15929178,
                    0.78155838,
                    0.23693572
                ],
                "xyz": [
                    2.8241026339534203,
                    3.653632412883006,
                    1.6807844630451263
                ],
                "label": "Si",
                "properties": {}
            },
            {
                "species": [
                    {
                        "element": "O",
                        "occu": 1
                    }
                ],
                "abc": [
                    0.63435773,
                    0.01366099,
                    0.80624723
                ],
                "xyz": [
                    5.169139696430087,
                    0.11158132063618709,
                    5.718829282726487
                ],
                "label": "O",
                "properties": {}
            },
            {
                "species": [
                    {
                        "element": "O",
                        "occu": 1
                    }
                ],
                "abc": [
                    0.36564227,
                    0.98633901,
                    0.19375277
                ],
                "xyz": [
                    4.131294873569912,
                    4.604738889363813,
                    1.3746151972735128
                ],
                "label": "O",
                "properties": {}
            },
            {
                "species": [
                    {
                        "element": "O",
                        "occu": 1
                    }
                ],
                "abc": [
                    0.30051562,
                    0.51730344,
                    0.37492641
                ],
                "xyz": [
                    3.378269228133979,
                    2.4312732194860174,
                    2.6595245622820993
                ],
                "label": "O",
                "properties": {}
            },
            {
                "species": [
                    {
                        "element": "O",
                        "occu": 1
                    }
                ],
                "abc": [
                    0.69948438,
                    0.48269656,
                    0.62507359
                ],
                "xyz": [
                    5.922165341866021,
                    2.2850469905139827,
                    4.433919917717901
                ],
                "label": "O",
                "properties": {}
            },
            {
                "species": [
                    {
                        "element": "O",
                        "occu": 1
                    }
                ],
                "abc": [
                    0.81954658,
                    0.97178914,
                    0.36937854
                ],
                "xyz": [
                    6.8055110575336535,
                    4.547507562675245,
                    2.620465466407235
                ],
                "label": "O",
                "properties": {}
            },
            {
                "species": [
                    {
                        "element": "O",
                        "occu": 1
                    }
                ],
                "abc": [
                    0.18045342,
                    0.02821086,
                    0.63062146
                ],
                "xyz": [
                    2.4949235124663462,
                    0.16881264732475582,
                    4.472979013592765
                ],
                "label": "O",
                "properties": {}
            },
            {
                "species": [
                    {
                        "element": "O",
                        "occu": 1
                    }
                ],
                "abc": [
                    0.15008948,
                    0.66440917,
                    0.04700345
                ],
                "xyz": [
                    2.0973667602752664,
                    3.096828931636638,
                    0.3335926255927516
                ],
                "label": "O",
                "properties": {}
            },
            {
                "species": [
                    {
                        "element": "O",
                        "occu": 1
                    }
                ],
                "abc": [
                    0.84991052,
                    0.33559083,
                    0.95299655
                ],
                "xyz": [
                    7.203067809724733,
                    1.6194912783633624,
                    6.759851854407248
                ],
                "label": "O",
                "properties": {}
            }
        ]
    },
    "spacegroup": {
        "source": "spglib",
        "symbol": "P-1",
        "number": 2,
        "point_group": "-1",
        "crystal_system": "triclinic",
        "hall": "-P 1"
    },
    "dielectric": {
        "epsilon_ionic": [
            [
                5.35660855,
                -0.09254627,
                0.58383389
            ],
            [
                -0.09254627,
                5.13586881,
                -0.37394016
            ],
            [
                0.58383389,
                -0.37394016,
                4.86091903
            ]
        ],
        "epsilon_ionic_avg": 5.117798796666665,
        "epsilon_ionic_eig": [
            4.37732683677665,
            5.861807358568411,
            5.114262194654933
        ],
        "epsilon_electronic": [
            [
                2.71034223,
                -0.00445397,
                0.00778129
            ],
            [
                -0.00445497,
                2.73034526,
                1.682e-05
            ],
            [
                0.00778026,
                1.79e-05,
                2.76476548
            ]
        ],
        "epsilon_electronic_avg": 2.7351509900000006,
        "epsilon_electronic_eig": [
            2.7083651157423367,
            2.76586629948654,
            2.731221554771125
        ]
    },
    "phonon": {
        "lowest_freq": -0.0455308952346882,
        "frequency": [
            -0.0455308952346882,
            -0.03936584159913204,
            -0.02673328495655414,
            4.207106921282723,
            5.0950777535555485,
            5.978215260112709,
            6.160129803603635,
            6.597713776819674,
            6.636818864812845,
            6.678525645542067,
            7.172702238721001,
            7.941682056346483,
            8.394029140887108,
            8.775716376394143,
            9.117368425210003,
            9.487556473475639,
            10.000673302644557,
            10.41896036899993,
            10.817434247177507,
            10.891933842275819,
            11.04975995250053,
            11.223567391146764,
            11.311114381319184,
            11.36553114697455,
            11.529451999646822,
            11.788347925897881,
            12.17809575505793,
            12.386100602567238,
            12.529972122975874,
            12.575550693368141,
            12.810238012525955,
            13.124561812615445,
            13.192757768619131,
            13.470652247307502,
            13.848089119057533,
            13.919036430382128,
            14.123594381465141,
            14.540938892282849,
            15.063263121440196,
            15.21015667219258,
            15.343888134128889,
            16.417662804360308,
            16.927723235202325,
            16.97836199917072,
            17.127677936292322,
            17.595071937119577,
            24.59451471756127,
            24.80645716184681,
            25.54663547734172,
            25.822553167994304,
            26.241134979050866,
            27.14783844838413,
            28.129673165047883,
            29.370232583797478
        ]
    },
    "born_effective_charge": {
        "avg_abs_trace": 1.514450185185185,
        "tensors": [
            [
                [
                    1.06501,
                    0.00463,
                    -0.03286
                ],
                [
                    0.00448,
                    1.04978,
                    -0.01617
                ],
                [
                    0.04971,
                    0.03868,
                    0.95173
                ]
            ],
            [
                [
                    1.06502,
                    0.00463,
                    -0.03286
                ],
                [
                    0.00448,
                    1.04978,
                    -0.01617
                ],
                [
                    0.04971,
                    0.03869,
                    0.95173
                ]
            ],
            [
                [
                    1.17211,
                    -0.04895,
                    0.08656
                ],
                [
                    -0.07316,
                    0.99737,
                    -0.04165
                ],
                [
                    0.0879,
                    -0.05702,
                    1.04087
                ]
            ],
            [
                [
                    1.1721,
                    -0.04895,
                    0.08656
                ],
                [
                    -0.07316,
                    0.99737,
                    -0.04165
                ],
                [
                    0.0879,
                    -0.05702,
                    1.04087
                ]
            ],
            [
                [
                    0.87404,
                    0.12626,
                    -0.04605
                ],
                [
                    0.14388,
                    1.04161,
                    0.07005
                ],
                [
                    -0.05675,
                    0.05347,
                    1.06745
                ]
            ],
            [
                [
                    0.87404,
                    0.12626,
                    -0.04605
                ],
                [
                    0.14388,
                    1.0416,
                    0.07006
                ],
                [
                    -0.05675,
                    0.05346,
                    1.06746
                ]
            ],
            [
                [
                    1.03363,
                    -0.06702,
                    0.00353
                ],
                [
                    -0.0638,
                    1.06498,
                    0.00115
                ],
                [
                    -0.05968,
                    -0.04075,
                    1.01587
                ]
            ],
            [
                [
                    1.03364,
                    -0.06702,
                    0.00353
                ],
                [
                    -0.0638,
                    1.06498,
                    0.00116
                ],
                [
                    -0.05967,
                    -0.04075,
                    1.01586
                ]
            ],
            [
                [
                    2.57142,
                    0.00625,
                    0.03755
                ],
                [
                    0.00682,
                    2.65232,
                    0.03827
                ],
                [
                    0.02556,
                    0.03746,
                    2.84687
                ]
            ],
            [
                [
                    2.57142,
                    0.00626,
                    0.03759
                ],
                [
                    0.00683,
                    2.65231,
                    0.03826
                ],
                [
                    0.02554,
                    0.03751,
                    2.84691
                ]
            ],
            [
                [
                    -1.88536,
                    -0.37928,
                    0.12172
                ],
                [
                    -0.3899,
                    -1.65873,
                    0.05379
                ],
                [
                    0.15391,
                    0.11921,
                    -1.52197
                ]
            ],
            [
                [
                    -1.88521,
                    -0.37915,
                    0.12169
                ],
                [
                    -0.38979,
                    -1.65865,
                    0.05367
                ],
                [
                    0.15401,
                    0.11921,
                    -1.522
                ]
            ],
            [
                [
                    -1.47369,
                    0.13181,
                    -0.15619
                ],
                [
                    0.20802,
                    -1.94121,
                    0.35606
                ],
                [
                    -0.11858,
                    0.28924,
                    -1.71094
                ]
            ],
            [
                [
                    -1.47367,
                    0.1318,
                    -0.15614
                ],
                [
                    0.20805,
                    -1.94127,
                    0.35606
                ],
                [
                    -0.1186,
                    0.28924,
                    -1.711
                ]
            ],
            [
                [
                    -1.77463,
                    0.30795,
                    0.24139
                ],
                [
                    0.23938,
                    -1.62643,
                    -0.27999
                ],
                [
                    0.20958,
                    -0.22049,
                    -1.75247
                ]
            ],
            [
                [
                    -1.77469,
                    0.30804,
                    0.24148
                ],
                [
                    0.23938,
                    -1.62641,
                    -0.28005
                ],
                [
                    0.20956,
                    -0.22041,
                    -1.75238
                ]
            ],
            [
                [
                    -1.58259,
                    -0.08178,
                    -0.25573
                ],
                [
                    -0.07574,
                    -1.57967,
                    -0.18137
                ],
                [
                    -0.29165,
                    -0.21986,
                    -1.93742
                ]
            ],
            [
                [
                    -1.58259,
                    -0.08175,
                    -0.25574
                ],
                [
                    -0.07584,
                    -1.57974,
                    -0.18147
                ],
                [
                    -0.2917,
                    -0.21986,
                    -1.93744
                ]
            ]
        ]
    },
    "band_gap": 4.8444,
    "is_direct": false,
    "formula": "Li4SiO4"
}