{
    "mp_id": "mp-19144",
    "nelements": 3,
    "nsites": 22,
    "elements": [
        "O",
        "Rb",
        "W"
    ],
    "structure": {
        "@module": "pymatgen.core.structure",
        "@class": "Structure",
        "charge": null,
        "lattice": {
            "matrix": [
                [
                    3.8641269,
                    0.0,
                    -0.00025036
                ],
                [
                    0.0,
                    14.16620338,
                    0.0
                ],
                [
                    -0.02135354,
                    0.0,
                    6.14637363
                ]
            ],
            "a": 3.8641269081105163,
            "b": 14.16620338,
            "c": 6.146410722790164,
            "alpha": 90.0,
            "beta": 90.20276665464829,
            "gamma": 90.0,
            "volume": 336.45246318717113
        },
        "sites": [
            {
                "species": [
                    {
                        "element": "Rb",
                        "occu": 1
                    }
                ],
                "abc": [
                    0.50573788,
                    0.82941839,
                    0.83509366
                ],
                "xyz": [
                    1.9364031405844155,
                    11.749709599852158,
                    5.132671033868549
                ],
                "label": "Rb",
                "properties": {}
            },
            {
                "species": [
                    {
                        "element": "Rb",
                        "occu": 1
                    }
                ],
                "abc": [
                    0.49426212,
                    0.32941839,
                    0.66490634
                ],
                "xyz": [
                    1.8956934494155844,
                    4.666607909852159,
                    4.086639051131451
                ],
                "label": "Rb",
                "properties": {}
            },
            {
                "species": [
                    {
                        "element": "Rb",
                        "occu": 1
                    }
                ],
                "abc": [
                    0.49426212,
                    0.17058161,
                    0.16490634
                ],
                "xyz": [
                    1.9063702194155845,
                    2.416493780147842,
                    1.013452236131451
                ],
                "label": "Rb",
                "properties": {}
            },
            {
                "species": [
                    {
                        "element": "Rb",
                        "occu": 1
                    }
                ],
                "abc": [
                    0.50573788,
                    0.67058161,
                    0.33509366
                ],
                "xyz": [
                    1.9470799105844157,
                    9.499595470147844,
                    2.0594842188685494
                ],
                "label": "Rb",
                "properties": {}
            },
            {
                "species": [
                    {
                        "element": "W",
                        "occu": 1
                    }
                ],
                "abc": [
                    0.97258495,
                    0.43900385,
                    0.21534665
                ],
                "xyz": [
                    3.7535932545255144,
                    6.2190178237030125,
                    1.3233574745007577
                ],
                "label": "W",
                "properties": {}
            },
            {
                "species": [
                    {
                        "element": "W",
                        "occu": 1
                    }
                ],
                "abc": [
                    0.02741505,
                    0.93900385,
                    0.28465335
                ],
                "xyz": [
                    0.099856875474486,
                    13.302119513703014,
                    1.7495789804992428
                ],
                "label": "W",
                "properties": {}
            },
            {
                "species": [
                    {
                        "element": "W",
                        "occu": 1
                    }
                ],
                "abc": [
                    0.02741505,
                    0.56099615,
                    0.78465335
                ],
                "xyz": [
                    0.089180105474486,
                    7.947185556296988,
                    4.822765795499243
                ],
                "label": "W",
                "properties": {}
            },
            {
                "species": [
                    {
                        "element": "W",
                        "occu": 1
                    }
                ],
                "abc": [
                    0.97258495,
                    0.06099615,
                    0.71534665
                ],
                "xyz": [
                    3.742916484525514,
                    0.8640838662969871,
                    4.396544289500757
                ],
                "label": "W",
                "properties": {}
            },
            {
                "species": [
                    {
                        "element": "O",
                        "occu": 1
                    }
                ],
                "abc": [
                    0.99746464,
                    0.18026121,
                    0.80187909
                ],
                "xyz": [
                    3.8372069899993373,
                    2.55361696238489,
                    4.928398767977127
                ],
                "label": "O",
                "properties": {}
            },
            {
                "species": [
                    {
                        "element": "O",
                        "occu": 1
                    }
                ],
                "abc": [
                    0.00253536,
                    0.68026121,
                    0.69812091
                ],
                "xyz": [
                    -0.005110399999337399,
                    9.63671865238489,
                    4.290911317022874
                ],
                "label": "O",
                "properties": {}
            },
            {
                "species": [
                    {
                        "element": "O",
                        "occu": 1
                    }
                ],
                "abc": [
                    0.00253536,
                    0.81973879,
                    0.19812091
                ],
                "xyz": [
                    0.0055663700006626,
                    11.61258641761511,
                    1.217724502022874
                ],
                "label": "O",
                "properties": {}
            },
            {
                "species": [
                    {
                        "element": "O",
                        "occu": 1
                    }
                ],
                "abc": [
                    0.99746464,
                    0.31973879,
                    0.30187909
                ],
                "xyz": [
                    3.8478837599993376,
                    4.5294847276151105,
                    1.8552119529771265
                ],
                "label": "O",
                "properties": {}
            },
            {
                "species": [
                    {
                        "element": "O",
                        "occu": 1
                    }
                ],
                "abc": [
                    0.00311593,
                    0.92046329,
                    0.58634307
                ],
                "xyz": [
                    -0.0004801512674507992,
                    13.039470169963922,
                    3.603882803477009
                ],
                "label": "O",
                "properties": {}
            },
            {
                "species": [
                    {
                        "element": "O",
                        "occu": 1
                    }
                ],
                "abc": [
                    0.99688407,
                    0.42046329,
                    0.91365693
                ],
                "xyz": [
                    3.832576741267451,
                    5.9563684799639205,
                    5.615427281522991
                ],
                "label": "O",
                "properties": {}
            },
            {
                "species": [
                    {
                        "element": "O",
                        "occu": 1
                    }
                ],
                "abc": [
                    0.99688407,
                    0.07953671,
                    0.41365693
                ],
                "xyz": [
                    3.843253511267451,
                    1.1267332100360798,
                    2.5422404665229905
                ],
                "label": "O",
                "properties": {}
            },
            {
                "species": [
                    {
                        "element": "O",
                        "occu": 1
                    }
                ],
                "abc": [
                    0.00311593,
                    0.57953671,
                    0.08634307
                ],
                "xyz": [
                    0.0101966187325492,
                    8.20983490003608,
                    0.5306959884770093
                ],
                "label": "O",
                "properties": {}
            },
            {
                "species": [
                    {
                        "element": "O",
                        "occu": 1
                    }
                ],
                "abc": [
                    0.0,
                    0.5,
                    0.5
                ],
                "xyz": [
                    -0.01067677,
                    7.08310169,
                    3.073186815
                ],
                "label": "O",
                "properties": {}
            },
            {
                "species": [
                    {
                        "element": "O",
                        "occu": 1
                    }
                ],
                "abc": [
                    0.0,
                    0.0,
                    0.0
                ],
                "xyz": [
                    0.0,
                    0.0,
                    0.0
                ],
                "label": "O",
                "properties": {}
            },
            {
                "species": [
                    {
                        "element": "O",
                        "occu": 1
                    }
                ],
                "abc": [
                    0.49322439,
                    0.44959032,
                    0.2231056
                ],
                "xyz": [
                    1.9011175387812669,
                    6.368987910799282,
                    1.3711668928870475
                ],
                "label": "O",
                "properties": {}
            },
            {
                "species": [
                    {
                        "element": "O",
                        "occu": 1
                    }
                ],
                "abc": [
                    0.49322439,
                    0.05040968,
                    0.7231056
                ],
                "xyz": [
                    1.890440768781267,
                    0.7141137792007184,
                    4.444353707887048
                ],
                "label": "O",
                "properties": {}
            },
            {
                "species": [
                    {
                        "element": "O",
                        "occu": 1
                    }
                ],
                "abc": [
                    0.50677561,
                    0.55040968,
                    0.7768944
                ],
                "xyz": [
                    1.9416558212187331,
                    7.797215469200719,
                    4.774956377112952
                ],
                "label": "O",
                "properties": {}
            },
            {
                "species": [
                    {
                        "element": "O",
                        "occu": 1
                    }
                ],
                "abc": [
                    0.50677561,
                    0.94959032,
                    0.2768944
                ],
                "xyz": [
                    1.952332591218733,
                    13.452089600799281,
                    1.7017695621129523
                ],
                "label": "O",
                "properties": {}
            }
        ]
    },
    "spacegroup": {
        "source": "spglib",
        "symbol": "P2_1/c",
        "number": 14,
        "point_group": "2/m",
        "crystal_system": "monoclinic",
        "hall": "-P 2ybc"
    },
    "dielectric": {
        "epsilon_ionic": [
            [
                36.30799085,
                -0.0,
                0.93834528
            ],
            [
                -0.0,
                5.70515858,
                -0.0
            ],
            [
                0.93834528,
                -0.0,
                20.65325161
            ]
        ],
        "epsilon_ionic_avg": 20.88880034666667,
        "epsilon_ionic_eig": [
            36.364034642513474,
            20.597207817486535,
            5.70515858
        ],
        "epsilon_electronic": [
            [
                4.92193216,
                0.0,
                -0.0155672
            ],
            [
                0.0,
                3.40400689,
                0.0
            ],
            [
                -0.01556692,
                0.0,
                4.60666664
            ]
        ],
        "epsilon_electronic_avg": 4.310868563333334,
        "epsilon_electronic_eig": [
            4.922698959286766,
            4.605899840713235,
            3.40400689
        ]
    },
    "phonon": {
        "lowest_freq": -0.06986777098240853,
        "frequency": [
            -0.06986777098240853,
            -0.027162235850975783,
            -0.01290827529924129,
            0.9242809728664422,
            0.9544497497539539,
            1.598314705303828,
            1.75574468864124,
            1.8864184319763846,
            2.1163480770917156,
            2.269705293017134,
            2.303799452712704,
            2.3626532971731113,
            2.3653484744399207,
            2.470926754006932,
            2.489665345827104,
            2.612736511615643,
            2.7181049655629916,
            2.871296556320135,
            2.8878724123530835,
            3.1721159607949803,
            3.963486011743085,
            3.9890611008421577,
            5.205631938770288,
            5.420612422851552,
            5.6746456155447325,
            5.68971810905688,
            5.77283756636766,
            5.78577743976499,
            6.967011652106893,
            6.988169476033504,
            7.004857416088933,
            7.039837238453492,
            7.467292791642189,
            7.823441205077755,
            8.444723847746245,
            8.474483067529635,
            8.87216178228129,
            8.97608914913585,
            8.97859126298731,
            9.00080082240011,
            9.54639238720006,
            9.591400974601148,
            10.268631047031167,
            10.27902290201139,
            10.980212574481513,
            11.011057423915238,
            11.452365926388987,
            11.50962998792687,
            12.873156049614323,
            13.444816402419054,
            14.785213437974456,
            14.859090600670227,
            17.630415627032043,
            17.68583619347362,
            18.33784991837197,
            18.344376031946826,
            19.010429622303274,
            19.032558945271884,
            20.478845252752237,
            20.596816886109444,
            22.5549202243853,
            24.195133722923742,
            24.945705587213617,
            25.012259637463142,
            25.415105171761745,
            25.491241971702753
        ]
    },
    "born_effective_charge": {
        "avg_abs_trace": 3.188391818181819,
        "tensors": [
            [
                [
                    1.2736,
                    4e-05,
                    -0.02093
                ],
                [
                    0.00243,
                    1.46282,
                    0.1331
                ],
                [
                    0.00153,
                    -0.12704,
                    1.31013
                ]
            ],
            [
                [
                    1.27359,
                    -7e-05,
                    -0.02091
                ],
                [
                    -0.00243,
                    1.46282,
                    -0.1331
                ],
                [
                    0.00152,
                    0.12714,
                    1.31017
                ]
            ],
            [
                [
                    1.27359,
                    7e-05,
                    -0.02091
                ],
                [
                    0.00243,
                    1.46275,
                    0.1331
                ],
                [
                    0.00152,
                    -0.12714,
                    1.31017
                ]
            ],
            [
                [
                    1.2736,
                    -4e-05,
                    -0.02093
                ],
                [
                    -0.00243,
                    1.46275,
                    -0.1331
                ],
                [
                    0.00153,
                    0.12704,
                    1.31013
                ]
            ],
            [
                [
                    9.52342,
                    -0.10528,
                    -0.03907
                ],
                [
                    -0.2178,
                    4.43918,
                    -0.16475
                ],
                [
                    0.01457,
                    -0.49185,
                    8.29449
                ]
            ],
            [
                [
                    9.52349,
                    0.10534,
                    -0.0389
                ],
                [
                    0.2178,
                    4.43918,
                    0.16475
                ],
                [
                    0.01446,
                    0.49197,
                    8.29558
                ]
            ],
            [
                [
                    9.52349,
                    -0.10534,
                    -0.0389
                ],
                [
                    -0.21773,
                    4.43925,
                    -0.1648
                ],
                [
                    0.01446,
                    -0.49197,
                    8.29558
                ]
            ],
            [
                [
                    9.52342,
                    0.10528,
                    -0.03907
                ],
                [
                    0.21773,
                    4.43925,
                    0.1648
                ],
                [
                    0.01457,
                    0.49185,
                    8.29449
                ]
            ],
            [
                [
                    -1.42279,
                    -0.12744,
                    -0.06763
                ],
                [
                    -0.14339,
                    -2.93122,
                    -0.58788
                ],
                [
                    -0.1013,
                    -0.80963,
                    -1.32071
                ]
            ],
            [
                [
                    -1.42279,
                    0.12737,
                    -0.0675
                ],
                [
                    0.14339,
                    -2.93122,
                    0.58788
                ],
                [
                    -0.10122,
                    0.80903,
                    -1.32105
                ]
            ],
            [
                [
                    -1.42279,
                    -0.12737,
                    -0.0675
                ],
                [
                    -0.14362,
                    -2.93132,
                    -0.58791
                ],
                [
                    -0.10122,
                    -0.80903,
                    -1.32105
                ]
            ],
            [
                [
                    -1.42279,
                    0.12744,
                    -0.06763
                ],
                [
                    0.14362,
                    -2.93132,
                    0.58791
                ],
                [
                    -0.1013,
                    0.80963,
                    -1.32071
                ]
            ],
            [
                [
                    -1.53356,
                    0.05908,
                    0.12704
                ],
                [
                    0.03581,
                    -1.54529,
                    -0.22093
                ],
                [
                    0.18761,
                    -0.6679,
                    -4.01716
                ]
            ],
            [
                [
                    -1.53347,
                    -0.05907,
                    0.12707
                ],
                [
                    -0.03581,
                    -1.54529,
                    0.22093
                ],
                [
                    0.18755,
                    0.66691,
                    -4.0171
                ]
            ],
            [
                [
                    -1.53347,
                    0.05907,
                    0.12707
                ],
                [
                    0.03571,
                    -1.54521,
                    -0.22093
                ],
                [
                    0.18755,
                    -0.66691,
                    -4.0171
                ]
            ],
            [
                [
                    -1.53356,
                    -0.05908,
                    0.12704
                ],
                [
                    -0.03571,
                    -1.54521,
                    0.22093
                ],
                [
                    0.18761,
                    0.6679,
                    -4.01716
                ]
            ],
            [
                [
                    -1.64176,
                    -0.12407,
                    -0.14144
                ],
                [
                    -0.08219,
                    -1.44393,
                    -1.42413
                ],
                [
                    -0.26959,
                    -2.41797,
                    -5.94391
                ]
            ],
            [
                [
                    -1.64176,
                    0.12407,
                    -0.14144
                ],
                [
                    0.08219,
                    -1.44393,
                    1.42413
                ],
                [
                    -0.26959,
                    2.41797,
                    -5.94391
                ]
            ],
            [
                [
                    -7.01983,
                    0.09481,
                    0.07109
                ],
                [
                    0.15644,
                    -0.70349,
                    -0.02783
                ],
                [
                    0.03248,
                    0.06681,
                    -1.29515
                ]
            ],
            [
                [
                    -7.01983,
                    -0.09481,
                    0.07109
                ],
                [
                    -0.15645,
                    -0.70354,
                    0.02785
                ],
                [
                    0.03248,
                    -0.06681,
                    -1.29515
                ]
            ],
            [
                [
                    -7.01989,
                    0.09496,
                    0.07117
                ],
                [
                    0.15645,
                    -0.70354,
                    -0.02785
                ],
                [
                    0.03239,
                    0.06663,
                    -1.29529
                ]
            ],
            [
                [
                    -7.01989,
                    -0.09496,
                    0.07117
                ],
                [
                    -0.15644,
                    -0.70349,
                    0.02783
                ],
                [
                    0.03239,
                    -0.06663,
                    -1.29529
                ]
            ]
        ]
    },
    "band_gap": 2.2748,
    "is_direct": false,
    "formula": "Rb2W2O7"
}