{
    "mp_id": "mp-1178405",
    "nelements": 3,
    "nsites": 12,
    "elements": [
        "Cs",
        "Hf",
        "O"
    ],
    "structure": {
        "@module": "pymatgen.core.structure",
        "@class": "Structure",
        "charge": null,
        "lattice": {
            "matrix": [
                [
                    5.62477617,
                    -3.82285289,
                    0.0
                ],
                [
                    5.62477617,
                    3.82285289,
                    0.0
                ],
                [
                    0.0,
                    0.0,
                    5.94934251
                ]
            ],
            "a": 6.800905173664842,
            "b": 6.800905173664842,
            "c": 5.94934251,
            "alpha": 90.0,
            "beta": 90.0,
            "gamma": 68.40360872120009,
            "volume": 255.8537572516309
        },
        "sites": [
            {
                "species": [
                    {
                        "element": "Cs",
                        "occu": 1
                    }
                ],
                "abc": [
                    0.48013311,
                    0.19469412,
                    0.75
                ],
                "xyz": [
                    3.7957521221711086,
                    -1.091191267840181,
                    4.4620068825
                ],
                "label": "Cs",
                "properties": {}
            },
            {
                "species": [
                    {
                        "element": "Cs",
                        "occu": 1
                    }
                ],
                "abc": [
                    0.19469412,
                    0.48013311,
                    0.25
                ],
                "xyz": [
                    3.7957521221711086,
                    1.091191267840181,
                    1.4873356275
                ],
                "label": "Cs",
                "properties": {}
            },
            {
                "species": [
                    {
                        "element": "Cs",
                        "occu": 1
                    }
                ],
                "abc": [
                    0.51986689,
                    0.80530588,
                    0.25
                ],
                "xyz": [
                    7.45380021782889,
                    1.0911912678401812,
                    1.4873356275
                ],
                "label": "Cs",
                "properties": {}
            },
            {
                "species": [
                    {
                        "element": "Cs",
                        "occu": 1
                    }
                ],
                "abc": [
                    0.80530588,
                    0.51986689,
                    0.75
                ],
                "xyz": [
                    7.45380021782889,
                    -1.0911912678401812,
                    4.4620068825
                ],
                "label": "Cs",
                "properties": {}
            },
            {
                "species": [
                    {
                        "element": "Hf",
                        "occu": 1
                    }
                ],
                "abc": [
                    0.91751254,
                    0.08248746,
                    0.25
                ],
                "xyz": [
                    5.6247761700000005,
                    -3.1921780403004814,
                    1.4873356275
                ],
                "label": "Hf",
                "properties": {}
            },
            {
                "species": [
                    {
                        "element": "Hf",
                        "occu": 1
                    }
                ],
                "abc": [
                    0.08248746,
                    0.91751254,
                    0.75
                ],
                "xyz": [
                    5.6247761700000005,
                    3.1921780403004814,
                    4.4620068825
                ],
                "label": "Hf",
                "properties": {}
            },
            {
                "species": [
                    {
                        "element": "O",
                        "occu": 1
                    }
                ],
                "abc": [
                    0.11956249,
                    0.11956249,
                    0.0
                ],
                "xyz": [
                    1.3450244891557264,
                    0.0,
                    0.0
                ],
                "label": "O",
                "properties": {}
            },
            {
                "species": [
                    {
                        "element": "O",
                        "occu": 1
                    }
                ],
                "abc": [
                    0.11956249,
                    0.11956249,
                    0.5
                ],
                "xyz": [
                    1.3450244891557264,
                    0.0,
                    2.974671255
                ],
                "label": "O",
                "properties": {}
            },
            {
                "species": [
                    {
                        "element": "O",
                        "occu": 1
                    }
                ],
                "abc": [
                    0.33701796,
                    0.66298204,
                    0.75
                ],
                "xyz": [
                    5.6247761700000005,
                    1.2461127252641915,
                    4.4620068825
                ],
                "label": "O",
                "properties": {}
            },
            {
                "species": [
                    {
                        "element": "O",
                        "occu": 1
                    }
                ],
                "abc": [
                    0.66298204,
                    0.33701796,
                    0.25
                ],
                "xyz": [
                    5.6247761700000005,
                    -1.2461127252641915,
                    1.4873356275
                ],
                "label": "O",
                "properties": {}
            },
            {
                "species": [
                    {
                        "element": "O",
                        "occu": 1
                    }
                ],
                "abc": [
                    0.88043751,
                    0.88043751,
                    0.0
                ],
                "xyz": [
                    9.904527850844273,
                    0.0,
                    0.0
                ],
                "label": "O",
                "properties": {}
            },
            {
                "species": [
                    {
                        "element": "O",
                        "occu": 1
                    }
                ],
                "abc": [
                    0.88043751,
                    0.88043751,
                    0.5
                ],
                "xyz": [
                    9.904527850844273,
                    0.0,
                    2.974671255
                ],
                "label": "O",
                "properties": {}
            }
        ]
    },
    "spacegroup": {
        "source": "spglib",
        "symbol": "Cmcm",
        "number": 63,
        "point_group": "mmm",
        "crystal_system": "orthorhombic",
        "hall": "-C 2c 2"
    },
    "dielectric": {
        "epsilon_ionic": [
            [
                5.77802382,
                1e-08,
                0.0
            ],
            [
                1e-08,
                5.45933322,
                -0.0
            ],
            [
                0.0,
                -0.0,
                20.98915439
            ]
        ],
        "epsilon_ionic_avg": 10.742170476666667,
        "epsilon_ionic_eig": [
            5.77802382,
            5.45933322,
            20.98915439
        ],
        "epsilon_electronic": [
            [
                3.4129611,
                0.0,
                0.0
            ],
            [
                0.0,
                3.57294528,
                0.0
            ],
            [
                0.0,
                0.0,
                3.54898567
            ]
        ],
        "epsilon_electronic_avg": 3.5116306833333333,
        "epsilon_electronic_eig": [
            3.4129611,
            3.57294528,
            3.54898567
        ]
    },
    "phonon": {
        "lowest_freq": -0.07458433099612972,
        "frequency": [
            -0.07458433099612972,
            -0.06859854083626862,
            -0.05846476016248539,
            1.1513751941188306,
            1.4838473552952887,
            1.5087674838580487,
            2.075673310615231,
            2.1243641673238667,
            2.176990242774137,
            2.227349308007885,
            2.292031216618984,
            2.4684757921594502,
            2.628044657084499,
            2.94144674248006,
            2.956540154071374,
            2.9987420960434505,
            3.1353957685598735,
            3.6653847337124787,
            4.339483608449871,
            4.526968462631528,
            5.0555412801174775,
            6.1469358811955,
            7.6536702881407255,
            7.681485163621535,
            7.759908587587907,
            9.100430388760993,
            11.99435039798976,
            12.371662554818576,
            13.777065919371351,
            13.787062010365672,
            14.609838356981774,
            15.54745862634346,
            16.59230659136117,
            17.2985130778313,
            19.697548218363224,
            19.93283696228226
        ]
    },
    "born_effective_charge": {
        "avg_abs_trace": 2.1467433333333332,
        "tensors": [
            [
                [
                    1.43952,
                    -0.11698,
                    0.0
                ],
                [
                    -0.06884,
                    1.49835,
                    -0.0
                ],
                [
                    2e-05,
                    5e-05,
                    1.22233
                ]
            ],
            [
                [
                    1.43952,
                    0.11698,
                    0.0
                ],
                [
                    0.0687,
                    1.49841,
                    -0.0
                ],
                [
                    2e-05,
                    -5e-05,
                    1.22233
                ]
            ],
            [
                [
                    1.43973,
                    -0.1171,
                    0.0
                ],
                [
                    -0.0687,
                    1.49841,
                    -0.0
                ],
                [
                    -2e-05,
                    -5e-05,
                    1.22233
                ]
            ],
            [
                [
                    1.43973,
                    0.1171,
                    0.0
                ],
                [
                    0.06884,
                    1.49835,
                    -0.0
                ],
                [
                    -2e-05,
                    5e-05,
                    1.22233
                ]
            ],
            [
                [
                    3.10227,
                    -0.00016,
                    0.0
                ],
                [
                    -0.0,
                    3.17087,
                    -0.0
                ],
                [
                    0.0,
                    0.00024,
                    4.72677
                ]
            ],
            [
                [
                    3.10227,
                    0.00016,
                    0.0
                ],
                [
                    -0.0,
                    3.17108,
                    -0.0
                ],
                [
                    0.0,
                    -0.00024,
                    4.72677
                ]
            ],
            [
                [
                    -2.2438,
                    -0.0,
                    0.0
                ],
                [
                    -1e-05,
                    -1.47086,
                    -0.45593
                ],
                [
                    0.00011,
                    -0.65438,
                    -2.86374
                ]
            ],
            [
                [
                    -2.2438,
                    -0.0,
                    0.0
                ],
                [
                    -1e-05,
                    -1.47086,
                    0.45593
                ],
                [
                    0.00011,
                    0.65438,
                    -2.86374
                ]
            ],
            [
                [
                    -1.49398,
                    -0.0003,
                    0.0
                ],
                [
                    -0.0,
                    -3.22638,
                    -0.0
                ],
                [
                    0.0,
                    7e-05,
                    -1.44395
                ]
            ],
            [
                [
                    -1.49398,
                    0.0003,
                    0.0
                ],
                [
                    -0.0,
                    -3.22567,
                    -0.0
                ],
                [
                    0.0,
                    -7e-05,
                    -1.44395
                ]
            ],
            [
                [
                    -2.24374,
                    -0.0,
                    0.0
                ],
                [
                    1e-05,
                    -1.47086,
                    -0.45593
                ],
                [
                    -0.00011,
                    -0.65438,
                    -2.86374
                ]
            ],
            [
                [
                    -2.24374,
                    -0.0,
                    0.0
                ],
                [
                    1e-05,
                    -1.47086,
                    0.45593
                ],
                [
                    -0.00011,
                    0.65438,
                    -2.86374
                ]
            ]
        ]
    },
    "band_gap": 3.8781,
    "is_direct": false,
    "formula": "Cs2HfO3"
}