{
    "mp_id": "mp-1019558",
    "nelements": 5,
    "nsites": 14,
    "elements": [
        "Ba",
        "Mg",
        "O",
        "Si",
        "Sr"
    ],
    "structure": {
        "@module": "pymatgen.core.structure",
        "@class": "Structure",
        "charge": null,
        "lattice": {
            "matrix": [
                [
                    5.48542065,
                    -0.0,
                    0.0
                ],
                [
                    -2.74270983,
                    4.75051348,
                    0.0
                ],
                [
                    0.0,
                    0.0,
                    7.00714682
                ]
            ],
            "a": 5.48542065,
            "b": 5.48542026970043,
            "c": 7.00714682,
            "alpha": 90.0,
            "beta": 90.0,
            "gamma": 119.99999632321199,
            "volume": 182.59618906073192
        },
        "sites": [
            {
                "species": [
                    {
                        "element": "Ba",
                        "occu": 1
                    }
                ],
                "abc": [
                    0.0,
                    0.0,
                    0.5
                ],
                "xyz": [
                    0.0,
                    0.0,
                    3.50357341
                ],
                "label": "Ba",
                "properties": {}
            },
            {
                "species": [
                    {
                        "element": "Sr",
                        "occu": 1
                    }
                ],
                "abc": [
                    0.666667,
                    0.333333,
                    0.16013188
                ],
                "xyz": [
                    2.7427132327101598,
                    1.58350290982884,
                    1.1220675937226217
                ],
                "label": "Sr",
                "properties": {}
            },
            {
                "species": [
                    {
                        "element": "Sr",
                        "occu": 1
                    }
                ],
                "abc": [
                    0.333333,
                    0.666667,
                    0.83986812
                ],
                "xyz": [
                    -2.412710160104581e-06,
                    3.1670105701711604,
                    5.885079226277378
                ],
                "label": "Sr",
                "properties": {}
            },
            {
                "species": [
                    {
                        "element": "Mg",
                        "occu": 1
                    }
                ],
                "abc": [
                    0.0,
                    0.0,
                    0.0
                ],
                "xyz": [
                    0.0,
                    0.0,
                    0.0
                ],
                "label": "Mg",
                "properties": {}
            },
            {
                "species": [
                    {
                        "element": "Si",
                        "occu": 1
                    }
                ],
                "abc": [
                    0.666667,
                    0.333333,
                    0.7278962
                ],
                "xyz": [
                    2.7427132327101598,
                    1.58350290982884,
                    5.100475543120084
                ],
                "label": "Si",
                "properties": {}
            },
            {
                "species": [
                    {
                        "element": "Si",
                        "occu": 1
                    }
                ],
                "abc": [
                    0.333333,
                    0.666667,
                    0.2721038
                ],
                "xyz": [
                    -2.412710160104581e-06,
                    3.1670105701711604,
                    1.906671276879916
                ],
                "label": "Si",
                "properties": {}
            },
            {
                "species": [
                    {
                        "element": "O",
                        "occu": 1
                    }
                ],
                "abc": [
                    0.666667,
                    0.333333,
                    0.49779072
                ],
                "xyz": [
                    2.7427132327101598,
                    1.58350290982884,
                    3.4880926606735105
                ],
                "label": "O",
                "properties": {}
            },
            {
                "species": [
                    {
                        "element": "O",
                        "occu": 1
                    }
                ],
                "abc": [
                    0.333333,
                    0.666667,
                    0.50220928
                ],
                "xyz": [
                    -2.412710160104581e-06,
                    3.1670105701711604,
                    3.5190541593264895
                ],
                "label": "O",
                "properties": {}
            },
            {
                "species": [
                    {
                        "element": "O",
                        "occu": 1
                    }
                ],
                "abc": [
                    0.34828396,
                    0.17414148,
                    0.82274151
                ],
                "xyz": [
                    1.4328644772410257,
                    0.8272614481671504,
                    5.765070555478498
                ],
                "label": "O",
                "properties": {}
            },
            {
                "species": [
                    {
                        "element": "O",
                        "occu": 1
                    }
                ],
                "abc": [
                    0.82585852,
                    0.65171604,
                    0.82274151
                ],
                "xyz": [
                    2.742713390309765,
                    3.09598583315222,
                    5.765070555478498
                ],
                "label": "O",
                "properties": {}
            },
            {
                "species": [
                    {
                        "element": "O",
                        "occu": 1
                    }
                ],
                "abc": [
                    0.82585852,
                    0.17414148,
                    0.82274151
                ],
                "xyz": [
                    4.05256183057969,
                    0.8272614481671504,
                    5.765070555478498
                ],
                "label": "O",
                "properties": {}
            },
            {
                "species": [
                    {
                        "element": "O",
                        "occu": 1
                    }
                ],
                "abc": [
                    0.65171604,
                    0.82585852,
                    0.17725849
                ],
                "xyz": [
                    1.3098463427589748,
                    3.9232520318328503,
                    1.2420762645215018
                ],
                "label": "O",
                "properties": {}
            },
            {
                "species": [
                    {
                        "element": "O",
                        "occu": 1
                    }
                ],
                "abc": [
                    0.17414148,
                    0.34828396,
                    0.17725849
                ],
                "xyz": [
                    -2.570309764804435e-06,
                    1.654527646847781,
                    1.2420762645215018
                ],
                "label": "O",
                "properties": {}
            },
            {
                "species": [
                    {
                        "element": "O",
                        "occu": 1
                    }
                ],
                "abc": [
                    0.17414148,
                    0.82585852,
                    0.17725849
                ],
                "xyz": [
                    -1.3098510105796897,
                    3.9232520318328503,
                    1.2420762645215018
                ],
                "label": "O",
                "properties": {}
            }
        ]
    },
    "spacegroup": {
        "source": "spglib",
        "symbol": "P-3m1",
        "number": 164,
        "point_group": "-3m",
        "crystal_system": "trigonal",
        "hall": "-P 3 2\""
    },
    "dielectric": {
        "epsilon_ionic": [
            [
                18.80926958,
                -0.0,
                -0.0
            ],
            [
                -0.0,
                18.80872542,
                -1.212e-05
            ],
            [
                -0.0,
                -1.212e-05,
                6.6637917
            ]
        ],
        "epsilon_ionic_avg": 14.760595566666666,
        "epsilon_ionic_eig": [
            6.663791699987906,
            18.80872542001209,
            18.80926958
        ],
        "epsilon_electronic": [
            [
                3.33194698,
                0.0,
                0.0
            ],
            [
                0.0,
                3.33194688,
                0.0
            ],
            [
                0.0,
                0.0,
                3.49734612
            ]
        ],
        "epsilon_electronic_avg": 3.3870799933333333,
        "epsilon_electronic_eig": [
            3.33194698,
            3.33194688,
            3.49734612
        ]
    },
    "phonon": {
        "lowest_freq": -0.14053041239246317,
        "frequency": [
            -0.14053041239246317,
            -0.1405304103055116,
            -0.01484520327490002,
            1.5404591060328774,
            1.8608073502040094,
            1.8608073764721915,
            3.436192933800107,
            3.4361929835877922,
            3.9194856730350325,
            3.9194857291546703,
            4.19523281291691,
            4.256095417056678,
            4.272432248363151,
            4.272432296986533,
            4.41733133668961,
            5.093784878859046,
            5.093784950829144,
            5.986478483800719,
            5.986478565451436,
            6.237994553569716,
            8.587895946110404,
            9.636764010507916,
            9.636764086591587,
            10.644810040397255,
            10.644810132235488,
            10.836695760290338,
            11.03536972184376,
            11.035369766137723,
            14.441528697731384,
            14.441528799271934,
            14.450128508847488,
            14.450128627240963,
            14.670857126463236,
            15.990576349299664,
            25.643671820924766,
            25.643672059190305,
            25.667451752120332,
            25.87941752193896,
            26.26869875610652,
            26.268698988702862,
            29.320115237915665,
            29.70011019172673
        ]
    },
    "born_effective_charge": {
        "avg_abs_trace": 2.252604047619047,
        "tensors": [
            [
                [
                    2.68105,
                    0.0,
                    0.0
                ],
                [
                    0.0,
                    2.68103,
                    -3e-05
                ],
                [
                    0.0,
                    0.0,
                    2.798
                ]
            ],
            [
                [
                    2.45123,
                    -2e-05,
                    2e-05
                ],
                [
                    0.0,
                    2.45136,
                    2e-05
                ],
                [
                    0.0,
                    0.0,
                    2.80972
                ]
            ],
            [
                [
                    2.45123,
                    2e-05,
                    -2e-05
                ],
                [
                    0.0,
                    2.4513,
                    -5e-05
                ],
                [
                    0.0,
                    0.0,
                    2.80971
                ]
            ],
            [
                [
                    2.22504,
                    0.0,
                    0.0
                ],
                [
                    0.0,
                    2.22507,
                    3e-05
                ],
                [
                    0.0,
                    0.0,
                    2.30631
                ]
            ],
            [
                [
                    2.7239,
                    -5e-05,
                    -5e-05
                ],
                [
                    0.0,
                    2.72398,
                    -6e-05
                ],
                [
                    0.0,
                    0.0,
                    3.03405
                ]
            ],
            [
                [
                    2.7239,
                    5e-05,
                    5e-05
                ],
                [
                    0.0,
                    2.72396,
                    6e-05
                ],
                [
                    0.0,
                    0.0,
                    3.03386
                ]
            ],
            [
                [
                    -1.54234,
                    0.0001,
                    2e-05
                ],
                [
                    0.0,
                    -1.54223,
                    4e-05
                ],
                [
                    0.0,
                    0.0,
                    -2.68763
                ]
            ],
            [
                [
                    -1.54234,
                    -0.0001,
                    -2e-05
                ],
                [
                    0.0,
                    -1.54218,
                    4e-05
                ],
                [
                    0.0,
                    0.0,
                    -2.68728
                ]
            ],
            [
                [
                    -2.17929,
                    -0.26089,
                    0.16839
                ],
                [
                    -0.26096,
                    -1.87805,
                    0.09727
                ],
                [
                    0.17476,
                    0.1009,
                    -1.90278
                ]
            ],
            [
                [
                    -1.72719,
                    9e-05,
                    0.0001
                ],
                [
                    0.0,
                    -2.33005,
                    -0.19451
                ],
                [
                    0.0,
                    -0.20179,
                    -1.90278
                ]
            ],
            [
                [
                    -2.17935,
                    0.26099,
                    -0.16846
                ],
                [
                    0.26096,
                    -1.87805,
                    0.09727
                ],
                [
                    -0.17476,
                    0.1009,
                    -1.90278
                ]
            ],
            [
                [
                    -2.17935,
                    -0.26099,
                    0.16846
                ],
                [
                    -0.26092,
                    -1.87806,
                    0.0972
                ],
                [
                    0.17451,
                    0.10075,
                    -1.9028
                ]
            ],
            [
                [
                    -1.72719,
                    -9e-05,
                    -0.0001
                ],
                [
                    0.0,
                    -2.33,
                    -0.19447
                ],
                [
                    0.0,
                    -0.2015,
                    -1.9028
                ]
            ],
            [
                [
                    -2.17929,
                    0.26089,
                    -0.16839
                ],
                [
                    0.26092,
                    -1.87806,
                    0.0972
                ],
                [
                    -0.17451,
                    0.10075,
                    -1.9028
                ]
            ]
        ]
    },
    "band_gap": 4.8598,
    "is_direct": false,
    "formula": "BaSr2Mg(SiO4)2"
}