{
    "mp_id": "mp-18480",
    "nelements": 4,
    "nsites": 24,
    "elements": [
        "Ca",
        "Na",
        "O",
        "Ta"
    ],
    "structure": {
        "@module": "pymatgen.core.structure",
        "@class": "Structure",
        "charge": null,
        "lattice": {
            "matrix": [
                [
                    0.0,
                    4.71112816,
                    9.76427963
                ],
                [
                    3.26993594,
                    0.0,
                    9.76427963
                ],
                [
                    3.26993594,
                    4.71112816,
                    0.0
                ]
            ],
            "a": 10.841396830334086,
            "b": 10.297263604693075,
            "c": 5.734737098738587,
            "alpha": 79.56799103905496,
            "beta": 69.08479418715622,
            "gamma": 31.347214773788828,
            "volume": 300.83916001562653
        },
        "sites": [
            {
                "species": [
                    {
                        "element": "Na",
                        "occu": 1
                    }
                ],
                "abc": [
                    0.0,
                    0.0,
                    0.0
                ],
                "xyz": [
                    0.0,
                    0.0,
                    0.0
                ],
                "label": "Na",
                "properties": {}
            },
            {
                "species": [
                    {
                        "element": "Na",
                        "occu": 1
                    }
                ],
                "abc": [
                    0.08642356,
                    0.08642356,
                    0.41357644
                ],
                "xyz": [
                    1.63496797,
                    2.35556408,
                    1.6877276129201657
                ],
                "label": "Na",
                "properties": {}
            },
            {
                "species": [
                    {
                        "element": "Na",
                        "occu": 1
                    }
                ],
                "abc": [
                    0.83642356,
                    0.83642356,
                    0.16357644
                ],
                "xyz": [
                    3.26993594,
                    4.71112816,
                    16.334147057920166
                ],
                "label": "Na",
                "properties": {}
            },
            {
                "species": [
                    {
                        "element": "Na",
                        "occu": 1
                    }
                ],
                "abc": [
                    0.16357644,
                    0.16357644,
                    0.83642356
                ],
                "xyz": [
                    3.26993594,
                    4.71112816,
                    3.1944122020798345
                ],
                "label": "Na",
                "properties": {}
            },
            {
                "species": [
                    {
                        "element": "Na",
                        "occu": 1
                    }
                ],
                "abc": [
                    0.25,
                    0.25,
                    0.25
                ],
                "xyz": [
                    1.63496797,
                    2.35556408,
                    4.882139815
                ],
                "label": "Na",
                "properties": {}
            },
            {
                "species": [
                    {
                        "element": "Na",
                        "occu": 1
                    }
                ],
                "abc": [
                    0.41357644,
                    0.41357644,
                    0.08642356
                ],
                "xyz": [
                    1.63496797,
                    2.35556408,
                    8.076552017079834
                ],
                "label": "Na",
                "properties": {}
            },
            {
                "species": [
                    {
                        "element": "Ca",
                        "occu": 1
                    }
                ],
                "abc": [
                    0.58067265,
                    0.58067265,
                    0.91932735
                ],
                "xyz": [
                    4.90490391,
                    7.06669224,
                    11.33970025618624
                ],
                "label": "Ca",
                "properties": {}
            },
            {
                "species": [
                    {
                        "element": "Ca",
                        "occu": 1
                    }
                ],
                "abc": [
                    0.91932735,
                    0.91932735,
                    0.58067265
                ],
                "xyz": [
                    4.90490391,
                    7.06669224,
                    17.95313863381376
                ],
                "label": "Ca",
                "properties": {}
            },
            {
                "species": [
                    {
                        "element": "Ca",
                        "occu": 1
                    }
                ],
                "abc": [
                    0.66932735,
                    0.66932735,
                    0.33067265
                ],
                "xyz": [
                    3.26993594,
                    4.71112816,
                    13.070998818813761
                ],
                "label": "Ca",
                "properties": {}
            },
            {
                "species": [
                    {
                        "element": "Ca",
                        "occu": 1
                    }
                ],
                "abc": [
                    0.33067265,
                    0.33067265,
                    0.66932735
                ],
                "xyz": [
                    3.26993594,
                    4.71112816,
                    6.4575604411862395
                ],
                "label": "Ca",
                "properties": {}
            },
            {
                "species": [
                    {
                        "element": "Ta",
                        "occu": 1
                    }
                ],
                "abc": [
                    0.75,
                    0.75,
                    0.75
                ],
                "xyz": [
                    4.90490391,
                    7.06669224,
                    14.646419445000001
                ],
                "label": "Ta",
                "properties": {}
            },
            {
                "species": [
                    {
                        "element": "Ta",
                        "occu": 1
                    }
                ],
                "abc": [
                    0.5,
                    0.5,
                    0.5
                ],
                "xyz": [
                    3.26993594,
                    4.71112816,
                    9.76427963
                ],
                "label": "Ta",
                "properties": {}
            },
            {
                "species": [
                    {
                        "element": "O",
                        "occu": 1
                    }
                ],
                "abc": [
                    0.28554185,
                    0.71445815,
                    0.28554185
                ],
                "xyz": [
                    3.26993594,
                    2.6904485007869923,
                    9.76427963
                ],
                "label": "O",
                "properties": {}
            },
            {
                "species": [
                    {
                        "element": "O",
                        "occu": 1
                    }
                ],
                "abc": [
                    0.71445815,
                    0.28554185,
                    0.71445815
                ],
                "xyz": [
                    3.26993594,
                    6.731807819213008,
                    9.76427963
                ],
                "label": "O",
                "properties": {}
            },
            {
                "species": [
                    {
                        "element": "O",
                        "occu": 1
                    }
                ],
                "abc": [
                    0.96445815,
                    0.53554185,
                    0.96445815
                ],
                "xyz": [
                    4.90490391,
                    9.087371899213009,
                    14.646419445
                ],
                "label": "O",
                "properties": {}
            },
            {
                "species": [
                    {
                        "element": "O",
                        "occu": 1
                    }
                ],
                "abc": [
                    0.53554185,
                    0.96445815,
                    0.53554185
                ],
                "xyz": [
                    4.90490391,
                    5.046012580786992,
                    14.646419445
                ],
                "label": "O",
                "properties": {}
            },
            {
                "species": [
                    {
                        "element": "O",
                        "occu": 1
                    }
                ],
                "abc": [
                    0.20404003,
                    0.64751186,
                    0.78849249
                ],
                "xyz": [
                    4.695642234061339,
                    4.675947904687764,
                    8.314790773415002
                ],
                "label": "O",
                "properties": {}
            },
            {
                "species": [
                    {
                        "element": "O",
                        "occu": 1
                    }
                ],
                "abc": [
                    0.35995563,
                    0.78849249,
                    0.64751186
                ],
                "xyz": [
                    4.695642234061339,
                    4.746308462423519,
                    11.213768584227797
                ],
                "label": "O",
                "properties": {}
            },
            {
                "species": [
                    {
                        "element": "O",
                        "occu": 1
                    }
                ],
                "abc": [
                    0.78849249,
                    0.35995563,
                    0.20404003
                ],
                "xyz": [
                    1.8442296786380206,
                    4.675947904687764,
                    11.213768584227797
                ],
                "label": "O",
                "properties": {}
            },
            {
                "species": [
                    {
                        "element": "O",
                        "occu": 1
                    }
                ],
                "abc": [
                    0.64751186,
                    0.20404003,
                    0.35995563
                ],
                "xyz": [
                    1.8442296786380206,
                    4.746308462423519,
                    8.314790773415002
                ],
                "label": "O",
                "properties": {}
            },
            {
                "species": [
                    {
                        "element": "O",
                        "occu": 1
                    }
                ],
                "abc": [
                    0.60248814,
                    0.04595997,
                    0.89004437
                ],
                "xyz": [
                    3.06067423136198,
                    7.031511937576482,
                    6.3316286715849985
                ],
                "label": "O",
                "properties": {}
            },
            {
                "species": [
                    {
                        "element": "O",
                        "occu": 1
                    }
                ],
                "abc": [
                    0.89004437,
                    0.46150751,
                    0.60248814
                ],
                "xyz": [
                    3.4791976159386606,
                    7.031511937576482,
                    13.196930490772207
                ],
                "label": "O",
                "properties": {}
            },
            {
                "species": [
                    {
                        "element": "O",
                        "occu": 1
                    }
                ],
                "abc": [
                    0.46150751,
                    0.89004437,
                    0.04595997
                ],
                "xyz": [
                    3.06067423136198,
                    2.390744335312237,
                    13.196930490772207
                ],
                "label": "O",
                "properties": {}
            },
            {
                "species": [
                    {
                        "element": "O",
                        "occu": 1
                    }
                ],
                "abc": [
                    0.04595997,
                    0.60248814,
                    0.46150751
                ],
                "xyz": [
                    3.4791976159386606,
                    2.390744335312237,
                    6.3316286715849985
                ],
                "label": "O",
                "properties": {}
            }
        ]
    },
    "spacegroup": {
        "source": "spglib",
        "symbol": "Fddd",
        "number": 70,
        "point_group": "mmm",
        "crystal_system": "orthorhombic",
        "hall": "F 2 2 -1d"
    },
    "dielectric": {
        "epsilon_ionic": [
            [
                6.23653915,
                0.0,
                0.0
            ],
            [
                0.0,
                10.67085549,
                0.0
            ],
            [
                0.0,
                0.0,
                8.96792206
            ]
        ],
        "epsilon_ionic_avg": 8.625105566666667,
        "epsilon_ionic_eig": [
            6.23653915,
            10.67085549,
            8.96792206
        ],
        "epsilon_electronic": [
            [
                3.29059176,
                0.0,
                0.0
            ],
            [
                0.0,
                3.47210533,
                0.0
            ],
            [
                0.0,
                0.0,
                3.6140525
            ]
        ],
        "epsilon_electronic_avg": 3.4589165299999998,
        "epsilon_electronic_eig": [
            3.29059176,
            3.47210533,
            3.6140525
        ]
    },
    "phonon": {
        "lowest_freq": -0.08689094321493017,
        "frequency": [
            -0.08689094321493017,
            -0.04805737505394636,
            -0.0416358106020104,
            2.492599801419042,
            3.155732018226553,
            3.1690442899171076,
            3.2525529536139755,
            4.190443519187245,
            4.255224284347867,
            4.402747840207533,
            4.496618739438975,
            4.521391023758355,
            5.033604304825405,
            5.25130302785489,
            5.3485817930403705,
            5.5099541960622345,
            5.564916049108232,
            5.729114493849546,
            6.068434035126049,
            6.172108230862516,
            6.177061970579274,
            6.523529608042587,
            6.759613560916058,
            6.8628819750740035,
            7.24047851525396,
            7.3616588670609495,
            7.385129621008557,
            7.400009407439978,
            7.590133967431013,
            8.031720251918582,
            8.039599645950913,
            8.070919719146465,
            8.088937370747558,
            8.242189696902015,
            8.366705864902894,
            8.531507602113617,
            8.618760264144543,
            8.838799898517841,
            8.859882760188754,
            8.924911673859727,
            9.029841815607458,
            9.780318152100804,
            10.215946670167991,
            10.250320074847053,
            10.388235308184642,
            10.436997371958892,
            10.5262563772915,
            10.585316518883587,
            10.845119847494177,
            10.972026138638421,
            11.209003052079415,
            11.797182690849146,
            11.817733539229865,
            12.294284858403792,
            12.542003411590997,
            12.89866360941388,
            13.191488287401437,
            13.622346920289468,
            14.082912385735456,
            14.101001086052205,
            14.133694143825942,
            14.289679952292753,
            14.343695641843858,
            14.485455081490532,
            14.537100357976596,
            14.748102726706865,
            14.748558721255822,
            14.895759027657249,
            15.81454684713353,
            17.987285765034834,
            19.37346339418263,
            19.645704265460047
        ]
    },
    "born_effective_charge": {
        "avg_abs_trace": 2.1855386111111113,
        "tensors": [
            [
                [
                    1.2703,
                    -0.0,
                    0.0
                ],
                [
                    0.0,
                    1.22072,
                    0.0
                ],
                [
                    -0.0,
                    -0.0,
                    0.757
                ]
            ],
            [
                [
                    1.14001,
                    -0.21108,
                    1e-05
                ],
                [
                    -0.22253,
                    1.0246,
                    1e-05
                ],
                [
                    -0.0,
                    -0.0,
                    1.07251
                ]
            ],
            [
                [
                    1.14001,
                    0.21108,
                    1e-05
                ],
                [
                    0.22253,
                    1.0246,
                    1e-05
                ],
                [
                    -0.0,
                    -0.0,
                    1.07251
                ]
            ],
            [
                [
                    1.14001,
                    -0.21108,
                    -1e-05
                ],
                [
                    -0.22253,
                    1.0246,
                    -1e-05
                ],
                [
                    -0.0,
                    -0.0,
                    1.07251
                ]
            ],
            [
                [
                    1.2703,
                    -0.0,
                    0.0
                ],
                [
                    0.0,
                    1.22072,
                    0.0
                ],
                [
                    -0.0,
                    -0.0,
                    0.757
                ]
            ],
            [
                [
                    1.14001,
                    0.21108,
                    -1e-05
                ],
                [
                    0.22253,
                    1.0246,
                    -1e-05
                ],
                [
                    -0.0,
                    -0.0,
                    1.07251
                ]
            ],
            [
                [
                    1.90977,
                    0.68153,
                    0.00013
                ],
                [
                    0.71863,
                    2.25463,
                    0.00013
                ],
                [
                    -0.0,
                    -0.0,
                    2.61939
                ]
            ],
            [
                [
                    1.90977,
                    -0.68153,
                    -0.00013
                ],
                [
                    -0.71863,
                    2.25463,
                    -0.00013
                ],
                [
                    -0.0,
                    -0.0,
                    2.61937
                ]
            ],
            [
                [
                    1.90977,
                    0.68153,
                    -0.00013
                ],
                [
                    0.71863,
                    2.25463,
                    -0.00013
                ],
                [
                    -0.0,
                    -0.0,
                    2.61937
                ]
            ],
            [
                [
                    1.90977,
                    -0.68153,
                    0.00013
                ],
                [
                    -0.71863,
                    2.25463,
                    0.00013
                ],
                [
                    -0.0,
                    -0.0,
                    2.61939
                ]
            ],
            [
                [
                    4.76512,
                    -0.0,
                    0.0
                ],
                [
                    0.0,
                    5.39105,
                    0.0
                ],
                [
                    -0.0,
                    -0.0,
                    5.89371
                ]
            ],
            [
                [
                    4.76512,
                    -0.0,
                    0.0
                ],
                [
                    0.0,
                    5.39105,
                    0.0
                ],
                [
                    -0.0,
                    -0.0,
                    5.89371
                ]
            ],
            [
                [
                    -1.67459,
                    8e-05,
                    0.48927
                ],
                [
                    0.0,
                    -3.13181,
                    -0.0
                ],
                [
                    0.48083,
                    2e-05,
                    -1.75689
                ]
            ],
            [
                [
                    -1.67459,
                    -8e-05,
                    -0.48927
                ],
                [
                    0.0,
                    -3.1318,
                    -0.0
                ],
                [
                    -0.48083,
                    -2e-05,
                    -1.75689
                ]
            ],
            [
                [
                    -1.67459,
                    -8e-05,
                    0.48927
                ],
                [
                    -0.0,
                    -3.1318,
                    0.0
                ],
                [
                    0.48083,
                    -2e-05,
                    -1.75689
                ]
            ],
            [
                [
                    -1.67459,
                    8e-05,
                    -0.48927
                ],
                [
                    -0.0,
                    -3.13181,
                    0.0
                ],
                [
                    -0.48083,
                    2e-05,
                    -1.75689
                ]
            ],
            [
                [
                    -2.19638,
                    0.1751,
                    0.69284
                ],
                [
                    0.18707,
                    -1.72667,
                    -0.13951
                ],
                [
                    0.71685,
                    -0.07709,
                    -2.63018
                ]
            ],
            [
                [
                    -2.19638,
                    -0.1751,
                    -0.69284
                ],
                [
                    -0.18707,
                    -1.72664,
                    -0.13954
                ],
                [
                    -0.71677,
                    -0.07706,
                    -2.63017
                ]
            ],
            [
                [
                    -2.19652,
                    -0.17508,
                    0.69278
                ],
                [
                    -0.18707,
                    -1.72667,
                    0.13951
                ],
                [
                    0.71677,
                    0.07706,
                    -2.63017
                ]
            ],
            [
                [
                    -2.19652,
                    0.17508,
                    -0.69278
                ],
                [
                    0.18707,
                    -1.72664,
                    0.13954
                ],
                [
                    -0.71685,
                    0.07709,
                    -2.63018
                ]
            ],
            [
                [
                    -2.19638,
                    0.1751,
                    -0.69284
                ],
                [
                    0.18707,
                    -1.72667,
                    0.13951
                ],
                [
                    -0.71677,
                    0.07706,
                    -2.63017
                ]
            ],
            [
                [
                    -2.19652,
                    -0.17508,
                    -0.69278
                ],
                [
                    -0.18707,
                    -1.72667,
                    -0.13951
                ],
                [
                    -0.71685,
                    -0.07709,
                    -2.63018
                ]
            ],
            [
                [
                    -2.19638,
                    -0.1751,
                    0.69284
                ],
                [
                    -0.18707,
                    -1.72664,
                    0.13954
                ],
                [
                    0.71685,
                    0.07709,
                    -2.63018
                ]
            ],
            [
                [
                    -2.19652,
                    0.17508,
                    0.69278
                ],
                [
                    0.18707,
                    -1.72664,
                    -0.13954
                ],
                [
                    0.71677,
                    -0.07706,
                    -2.63017
                ]
            ]
        ]
    },
    "band_gap": 4.4363,
    "is_direct": false,
    "formula": "Na3Ca2TaO6"
}