{
    "mp_id": "mp-16136",
    "nelements": 5,
    "nsites": 23,
    "elements": [
        "Ga",
        "O",
        "Si",
        "Sr",
        "Ta"
    ],
    "structure": {
        "@module": "pymatgen.core.structure",
        "@class": "Structure",
        "charge": null,
        "lattice": {
            "matrix": [
                [
                    8.29813816,
                    -0.0,
                    0.0
                ],
                [
                    -4.14906958,
                    7.1863987,
                    0.0
                ],
                [
                    0.0,
                    0.0,
                    5.08086224
                ]
            ],
            "a": 8.29813816,
            "b": 8.298138625923471,
            "c": 5.08086224,
            "alpha": 90.0,
            "beta": 90.0,
            "gamma": 120.00000212904487,
            "volume": 302.9907633567966
        },
        "sites": [
            {
                "species": [
                    {
                        "element": "Sr",
                        "occu": 1
                    }
                ],
                "abc": [
                    0.57149695,
                    0.57149695,
                    0.0
                ],
                "xyz": [
                    2.3711800388108317,
                    4.107004938533965,
                    0.0
                ],
                "label": "Sr",
                "properties": {}
            },
            {
                "species": [
                    {
                        "element": "Sr",
                        "occu": 1
                    }
                ],
                "abc": [
                    0.42850305,
                    0.0,
                    0.0
                ],
                "xyz": [
                    3.5557775108813883,
                    0.0,
                    0.0
                ],
                "label": "Sr",
                "properties": {}
            },
            {
                "species": [
                    {
                        "element": "Sr",
                        "occu": 1
                    }
                ],
                "abc": [
                    0.0,
                    0.42850305,
                    0.0
                ],
                "xyz": [
                    -1.7778889696922189,
                    3.0793937614660347,
                    0.0
                ],
                "label": "Sr",
                "properties": {}
            },
            {
                "species": [
                    {
                        "element": "Ta",
                        "occu": 1
                    }
                ],
                "abc": [
                    0.0,
                    0.0,
                    0.0
                ],
                "xyz": [
                    0.0,
                    0.0,
                    0.0
                ],
                "label": "Ta",
                "properties": {}
            },
            {
                "species": [
                    {
                        "element": "Ga",
                        "occu": 1
                    }
                ],
                "abc": [
                    0.25369421,
                    0.25369421,
                    0.5
                ],
                "xyz": [
                    1.052594675638922,
                    1.8231477409415269,
                    2.54043112
                ],
                "label": "Ga",
                "properties": {}
            },
            {
                "species": [
                    {
                        "element": "Ga",
                        "occu": 1
                    }
                ],
                "abc": [
                    0.0,
                    0.74630579,
                    0.5
                ],
                "xyz": [
                    -3.096474650666868,
                    5.3632509590584725,
                    2.54043112
                ],
                "label": "Ga",
                "properties": {}
            },
            {
                "species": [
                    {
                        "element": "Ga",
                        "occu": 1
                    }
                ],
                "abc": [
                    0.74630579,
                    0.0,
                    0.5
                ],
                "xyz": [
                    6.192948555027947,
                    0.0,
                    2.54043112
                ],
                "label": "Ga",
                "properties": {}
            },
            {
                "species": [
                    {
                        "element": "Si",
                        "occu": 1
                    }
                ],
                "abc": [
                    0.333333,
                    0.666667,
                    0.53619283
                ],
                "xyz": [
                    -4.482402579775169e-06,
                    4.7909348621329,
                    2.724321903305739
                ],
                "label": "Si",
                "properties": {}
            },
            {
                "species": [
                    {
                        "element": "Si",
                        "occu": 1
                    }
                ],
                "abc": [
                    0.666667,
                    0.333333,
                    0.46380717
                ],
                "xyz": [
                    4.1490730624025804,
                    2.3954638378671,
                    2.3565403366942608
                ],
                "label": "Si",
                "properties": {}
            },
            {
                "species": [
                    {
                        "element": "O",
                        "occu": 1
                    }
                ],
                "abc": [
                    0.09361128,
                    0.22311276,
                    0.23169937
                ],
                "xyz": [
                    -0.14891103065139588,
                    1.6033772484174118,
                    1.1772325800647887
                ],
                "label": "O",
                "properties": {}
            },
            {
                "species": [
                    {
                        "element": "O",
                        "occu": 1
                    }
                ],
                "abc": [
                    0.77688724,
                    0.87049851,
                    0.23169937
                ],
                "xyz": [
                    2.8349587649847527,
                    6.255749360615937,
                    1.1772325800647887
                ],
                "label": "O",
                "properties": {}
            },
            {
                "species": [
                    {
                        "element": "O",
                        "occu": 1
                    }
                ],
                "abc": [
                    0.12950149,
                    0.90638872,
                    0.23169937
                ],
                "xyz": [
                    -2.6860486098612792,
                    6.513670719102664,
                    1.1772325800647887
                ],
                "label": "O",
                "properties": {}
            },
            {
                "species": [
                    {
                        "element": "O",
                        "occu": 1
                    }
                ],
                "abc": [
                    0.87049851,
                    0.77688724,
                    0.76830063
                ],
                "xyz": [
                    4.000157689479982,
                    5.583021451582588,
                    3.9036296599352114
                ],
                "label": "O",
                "properties": {}
            },
            {
                "species": [
                    {
                        "element": "O",
                        "occu": 1
                    }
                ],
                "abc": [
                    0.90638872,
                    0.12950149,
                    0.76830063
                ],
                "xyz": [
                    6.984028132501882,
                    0.9306493393840629,
                    3.9036296599352114
                ],
                "label": "O",
                "properties": {}
            },
            {
                "species": [
                    {
                        "element": "O",
                        "occu": 1
                    }
                ],
                "abc": [
                    0.22311276,
                    0.09361128,
                    0.76830063
                ],
                "xyz": [
                    1.4630207935460593,
                    0.672727980897336,
                    3.9036296599352114
                ],
                "label": "O",
                "properties": {}
            },
            {
                "species": [
                    {
                        "element": "O",
                        "occu": 1
                    }
                ],
                "abc": [
                    0.30807773,
                    0.47381418,
                    0.67256732
                ],
                "xyz": [
                    0.5905835667485329,
                    3.4050176071935656,
                    3.417221900045997
                ],
                "label": "O",
                "properties": {}
            },
            {
                "species": [
                    {
                        "element": "O",
                        "occu": 1
                    }
                ],
                "abc": [
                    0.52618582,
                    0.83426355,
                    0.67256732
                ],
                "xyz": [
                    0.9049451151850825,
                    5.995350491177384,
                    3.417221900045997
                ],
                "label": "O",
                "properties": {}
            },
            {
                "species": [
                    {
                        "element": "O",
                        "occu": 1
                    }
                ],
                "abc": [
                    0.16573645,
                    0.69192227,
                    0.67256732
                ],
                "xyz": [
                    -1.4955296819336141,
                    4.972429301629049,
                    3.417221900045997
                ],
                "label": "O",
                "properties": {}
            },
            {
                "species": [
                    {
                        "element": "O",
                        "occu": 1
                    }
                ],
                "abc": [
                    0.333333,
                    0.666667,
                    0.21970185
                ],
                "xyz": [
                    -4.482402579775169e-06,
                    4.7909348621329,
                    1.116274833723144
                ],
                "label": "O",
                "properties": {}
            },
            {
                "species": [
                    {
                        "element": "O",
                        "occu": 1
                    }
                ],
                "abc": [
                    0.666667,
                    0.333333,
                    0.78029815
                ],
                "xyz": [
                    4.1490730624025804,
                    2.3954638378671,
                    3.964587406276856
                ],
                "label": "O",
                "properties": {}
            },
            {
                "species": [
                    {
                        "element": "O",
                        "occu": 1
                    }
                ],
                "abc": [
                    0.47381418,
                    0.30807773,
                    0.32743268
                ],
                "xyz": [
                    2.6535395899886556,
                    2.213969398370951,
                    1.6636403399540032
                ],
                "label": "O",
                "properties": {}
            },
            {
                "species": [
                    {
                        "element": "O",
                        "occu": 1
                    }
                ],
                "abc": [
                    0.69192227,
                    0.16573645,
                    0.32743268
                ],
                "xyz": [
                    5.054014529448632,
                    1.191048208822615,
                    1.6636403399540032
                ],
                "label": "O",
                "properties": {}
            },
            {
                "species": [
                    {
                        "element": "O",
                        "occu": 1
                    }
                ],
                "abc": [
                    0.83426355,
                    0.52618582,
                    0.32743268
                ],
                "xyz": [
                    4.739652620562712,
                    3.781381092806434,
                    1.6636403399540032
                ],
                "label": "O",
                "properties": {}
            }
        ]
    },
    "spacegroup": {
        "source": "spglib",
        "symbol": "P321",
        "number": 150,
        "point_group": "32",
        "crystal_system": "trigonal",
        "hall": "P 3 2\""
    },
    "dielectric": {
        "epsilon_ionic": [
            [
                8.53355361,
                -0.00012304,
                1e-08
            ],
            [
                -0.00012304,
                8.53316956,
                -0.00057343
            ],
            [
                1e-08,
                -0.00057343,
                14.06717278
            ]
        ],
        "epsilon_ionic_avg": 10.377965316666668,
        "epsilon_ionic_eig": [
            8.53358964266991,
            8.533133467911632,
            14.067172839418463
        ],
        "epsilon_electronic": [
            [
                3.35607119,
                0.0,
                0.0
            ],
            [
                -0.0,
                3.35607183,
                -0.0
            ],
            [
                0.0,
                -0.0,
                3.58032577
            ]
        ],
        "epsilon_electronic_avg": 3.43082293,
        "epsilon_electronic_eig": [
            3.35607119,
            3.35607183,
            3.58032577
        ]
    },
    "phonon": {
        "lowest_freq": -0.04263870415942783,
        "frequency": [
            -0.04263870415942783,
            -0.01692450097524154,
            -0.01692449938677428,
            1.8755471261549572,
            2.7621174000030213,
            2.7621175017583437,
            2.8085961620194646,
            3.2532510213915447,
            3.2532510777352126,
            3.560564913251493,
            3.5605649510039497,
            3.7096312748960045,
            3.775814655547648,
            4.2886586147737935,
            4.288658711652621,
            4.612431949564075,
            4.612432108525852,
            4.709070979690687,
            5.428619718039521,
            5.428619988163572,
            5.688664117882235,
            5.688664225288879,
            5.714962039781539,
            6.017879584281268,
            6.633422298821181,
            6.633422427774293,
            6.968262251147314,
            7.165509313865582,
            7.439789526299948,
            7.439789559150357,
            7.797116150846041,
            8.416988554418571,
            8.416988670564686,
            8.48831959262002,
            8.836063536169904,
            8.83606360531838,
            9.413963516616477,
            9.413963698346615,
            9.971887000455965,
            12.772198414426066,
            12.772198777997183,
            13.104823257959664,
            13.104823575003403,
            14.023471426359395,
            14.023471914341533,
            15.136436649371719,
            15.136436835056207,
            15.186299779271307,
            15.84907549266174,
            15.849075955275717,
            16.25381259591246,
            17.101724874165505,
            17.101724874165505,
            17.33806183264184,
            17.44577167267701,
            18.59656349348055,
            19.436149913137744,
            19.436150227500583,
            20.53382092146052,
            20.53382127853015,
            23.24450318289234,
            25.529436768323013,
            25.529437199120053,
            25.780820453349573,
            25.87696399994707,
            27.125500966353567,
            27.125501416852394,
            29.086237155314087,
            29.275024010918976
        ]
    },
    "born_effective_charge": {
        "avg_abs_trace": 2.4635031884057974,
        "tensors": [
            [
                [
                    2.52071,
                    0.1776,
                    0.05409
                ],
                [
                    0.17731,
                    2.72496,
                    -0.03139
                ],
                [
                    0.09576,
                    -0.0552,
                    2.36517
                ]
            ],
            [
                [
                    2.82727,
                    0.0,
                    -0.0
                ],
                [
                    -6e-05,
                    2.4186,
                    0.06212
                ],
                [
                    -8e-05,
                    0.11053,
                    2.36517
                ]
            ],
            [
                [
                    2.52071,
                    -0.1776,
                    -0.05409
                ],
                [
                    -0.17779,
                    2.72502,
                    -0.0312
                ],
                [
                    -0.09568,
                    -0.05533,
                    2.36517
                ]
            ],
            [
                [
                    5.12128,
                    0.0,
                    -0.0
                ],
                [
                    -0.00065,
                    5.12084,
                    -0.00021
                ],
                [
                    -0.0,
                    0.0,
                    7.0577
                ]
            ],
            [
                [
                    2.6535,
                    0.311,
                    -0.30469
                ],
                [
                    0.3115,
                    3.01281,
                    0.17612
                ],
                [
                    0.2554,
                    -0.14748,
                    3.19385
                ]
            ],
            [
                [
                    2.6535,
                    -0.311,
                    0.30469
                ],
                [
                    -0.31027,
                    3.01282,
                    0.17556
                ],
                [
                    -0.25542,
                    -0.14744,
                    3.19385
                ]
            ],
            [
                [
                    3.19234,
                    0.0,
                    -0.0
                ],
                [
                    0.00094,
                    2.47385,
                    -0.35203
                ],
                [
                    2e-05,
                    0.29492,
                    3.19385
                ]
            ],
            [
                [
                    3.12504,
                    0.04953,
                    2e-05
                ],
                [
                    -0.04959,
                    3.12494,
                    0.00014
                ],
                [
                    -0.0,
                    0.0,
                    2.889
                ]
            ],
            [
                [
                    3.12504,
                    -0.04953,
                    -2e-05
                ],
                [
                    0.04929,
                    3.12491,
                    0.00016
                ],
                [
                    -0.0,
                    0.0,
                    2.88897
                ]
            ],
            [
                [
                    -1.52041,
                    0.01283,
                    -0.35448
                ],
                [
                    0.04648,
                    -2.43512,
                    -0.81403
                ],
                [
                    -0.31725,
                    -0.90629,
                    -2.56373
                ]
            ],
            [
                [
                    -2.18086,
                    -0.42793,
                    0.88201
                ],
                [
                    -0.39405,
                    -1.77453,
                    0.10041
                ],
                [
                    0.9435,
                    0.1784,
                    -2.56373
                ]
            ],
            [
                [
                    -2.23236,
                    0.36434,
                    -0.52751
                ],
                [
                    0.39824,
                    -1.72367,
                    0.71418
                ],
                [
                    -0.62625,
                    0.72789,
                    -2.56373
                ]
            ],
            [
                [
                    -1.52041,
                    -0.01283,
                    0.35448
                ],
                [
                    -0.04657,
                    -2.43549,
                    -0.81355
                ],
                [
                    0.31726,
                    -0.90619,
                    -2.56378
                ]
            ],
            [
                [
                    -2.18086,
                    0.42793,
                    -0.88201
                ],
                [
                    0.39415,
                    -1.77486,
                    0.09967
                ],
                [
                    -0.94342,
                    0.17834,
                    -2.56378
                ]
            ],
            [
                [
                    -2.23236,
                    -0.36434,
                    0.52751
                ],
                [
                    -0.39835,
                    -1.7229,
                    0.71395
                ],
                [
                    0.62615,
                    0.72785,
                    -2.56378
                ]
            ],
            [
                [
                    -1.57152,
                    0.33136,
                    -0.13943
                ],
                [
                    0.37062,
                    -2.62507,
                    0.03377
                ],
                [
                    -0.14362,
                    0.02902,
                    -1.64734
                ]
            ],
            [
                [
                    -2.05762,
                    -0.65145,
                    0.04037
                ],
                [
                    -0.61212,
                    -2.13883,
                    -0.13758
                ],
                [
                    0.04668,
                    -0.13889,
                    -1.64734
                ]
            ],
            [
                [
                    -2.66575,
                    0.26089,
                    0.09908
                ],
                [
                    0.3002,
                    -1.53085,
                    0.10391
                ],
                [
                    0.09694,
                    0.10987,
                    -1.64734
                ]
            ],
            [
                [
                    -1.64117,
                    0.0228,
                    1e-05
                ],
                [
                    -0.02314,
                    -1.64108,
                    3e-05
                ],
                [
                    -0.0,
                    0.0,
                    -2.12271
                ]
            ],
            [
                [
                    -1.64117,
                    -0.0228,
                    -1e-05
                ],
                [
                    0.02295,
                    -1.64125,
                    -2e-05
                ],
                [
                    -0.0,
                    0.0,
                    -2.12288
                ]
            ],
            [
                [
                    -2.66575,
                    -0.26089,
                    -0.09908
                ],
                [
                    -0.30026,
                    -1.53109,
                    0.10389
                ],
                [
                    -0.09693,
                    0.1098,
                    -1.64753
                ]
            ],
            [
                [
                    -2.05762,
                    0.65145,
                    -0.04037
                ],
                [
                    0.61192,
                    -2.13894,
                    -0.13788
                ],
                [
                    -0.04662,
                    -0.13885,
                    -1.64753
                ]
            ],
            [
                [
                    -1.57152,
                    -0.33136,
                    0.13943
                ],
                [
                    -0.37075,
                    -2.62506,
                    0.03397
                ],
                [
                    0.14355,
                    0.02905,
                    -1.64753
                ]
            ]
        ]
    },
    "band_gap": 4.067699999999999,
    "is_direct": false,
    "formula": "Sr3TaGa3(SiO7)2"
}