{
    "mp_id": "mp-1178391",
    "nelements": 4,
    "nsites": 7,
    "elements": [
        "Cs",
        "Li",
        "O",
        "W"
    ],
    "structure": {
        "@module": "pymatgen.core.structure",
        "@class": "Structure",
        "charge": null,
        "lattice": {
            "matrix": [
                [
                    -2.95415684,
                    2.95415753,
                    4.06774188
                ],
                [
                    2.95415684,
                    -2.95415753,
                    4.06774188
                ],
                [
                    2.95415753,
                    2.95415684,
                    -4.06774188
                ]
            ],
            "a": 5.831004488909302,
            "b": 5.831004488909302,
            "c": 5.831004488909302,
            "alpha": 119.12087470238421,
            "beta": 119.12087470238421,
            "gamma": 91.52955596048261,
            "volume": 141.99746043115414
        },
        "sites": [
            {
                "species": [
                    {
                        "element": "Cs",
                        "occu": 1
                    }
                ],
                "abc": [
                    0.5,
                    0.5,
                    0.0
                ],
                "xyz": [
                    0.0,
                    0.0,
                    4.06774188
                ],
                "label": "Cs",
                "properties": {}
            },
            {
                "species": [
                    {
                        "element": "Li",
                        "occu": 1
                    }
                ],
                "abc": [
                    0.75,
                    0.25,
                    0.5
                ],
                "xyz": [
                    3.4499999967962935e-07,
                    2.9541571849999997,
                    2.03387094
                ],
                "label": "Li",
                "properties": {}
            },
            {
                "species": [
                    {
                        "element": "W",
                        "occu": 1
                    }
                ],
                "abc": [
                    0.0,
                    0.0,
                    0.0
                ],
                "xyz": [
                    0.0,
                    0.0,
                    0.0
                ],
                "label": "W",
                "properties": {}
            },
            {
                "species": [
                    {
                        "element": "O",
                        "occu": 1
                    }
                ],
                "abc": [
                    0.36118598,
                    0.04843073,
                    0.15617274
                ],
                "xyz": [
                    -0.4625691851816778,
                    1.385287044927074,
                    1.0309446510024634
                ],
                "label": "O",
                "properties": {}
            },
            {
                "species": [
                    {
                        "element": "O",
                        "occu": 1
                    }
                ],
                "abc": [
                    0.89225798,
                    0.20501323,
                    0.84382726
                ],
                "xyz": [
                    0.4625698751816776,
                    4.523027325072926,
                    1.0309445696476263
                ],
                "label": "O",
                "properties": {}
            },
            {
                "species": [
                    {
                        "element": "O",
                        "occu": 1
                    }
                ],
                "abc": [
                    0.79498677,
                    0.63881402,
                    0.68724475
                ],
                "xyz": [
                    1.568870455531357,
                    2.4915876843598976,
                    3.0367972696749552
                ],
                "label": "O",
                "properties": {}
            },
            {
                "species": [
                    {
                        "element": "O",
                        "occu": 1
                    }
                ],
                "abc": [
                    0.95156927,
                    0.10774202,
                    0.31275525
                ],
                "xyz": [
                    -1.5688697655313577,
                    3.416726685640102,
                    3.0367972696749557
                ],
                "label": "O",
                "properties": {}
            }
        ]
    },
    "spacegroup": {
        "source": "spglib",
        "symbol": "I-4",
        "number": 82,
        "point_group": "-4",
        "crystal_system": "tetragonal",
        "hall": "I -4"
    },
    "dielectric": {
        "epsilon_ionic": [
            [
                3.30991768,
                7.012e-05,
                -0.00021484
            ],
            [
                7.012e-05,
                3.31008808,
                -0.00042818
            ],
            [
                -0.00021484,
                -0.00042818,
                4.16723999
            ]
        ],
        "epsilon_ionic_avg": 3.5957485833333336,
        "epsilon_ionic_eig": [
            4.1672402577473395,
            3.3098925318578303,
            3.310112960394831
        ],
        "epsilon_electronic": [
            [
                2.58768179,
                3.439e-05,
                0.0
            ],
            [
                -3.439e-05,
                2.58768179,
                0.0
            ],
            [
                -0.0,
                0.0,
                2.59869393
            ]
        ],
        "epsilon_electronic_avg": 2.5913525033333333,
        "epsilon_electronic_eig": [
            2.58768179,
            2.58768179,
            2.59869393
        ]
    },
    "phonon": {
        "lowest_freq": -0.11126943432367987,
        "frequency": [
            -0.11126943432367987,
            -0.11126943432367987,
            -0.0517660760930406,
            1.1519387360524718,
            1.1519387360524718,
            1.638113825402517,
            2.195001765994421,
            2.195001765994421,
            4.186412802620139,
            8.839068674300137,
            8.963727116751093,
            8.963727116751093,
            8.969242953313806,
            9.383186404260169,
            12.587786726896873,
            13.412422575736265,
            13.412422575736265,
            24.090032055877842,
            24.282131013031215,
            24.282131013031215,
            27.284573790584627
        ]
    },
    "born_effective_charge": {
        "avg_abs_trace": 1.681002857142857,
        "tensors": [
            [
                [
                    1.33595,
                    0.03595,
                    -0.00011
                ],
                [
                    -0.03595,
                    1.33607,
                    -0.00014
                ],
                [
                    -0.0,
                    0.0,
                    1.34667
                ]
            ],
            [
                [
                    1.31209,
                    -0.21112,
                    -0.00012
                ],
                [
                    0.21107,
                    1.3122,
                    -0.00018
                ],
                [
                    -0.0,
                    0.0,
                    1.25391
                ]
            ],
            [
                [
                    3.23456,
                    0.03191,
                    -0.00044
                ],
                [
                    -0.03126,
                    3.23408,
                    0.00048
                ],
                [
                    -0.0,
                    0.0,
                    3.28499
                ]
            ],
            [
                [
                    -0.89178,
                    0.48749,
                    0.2019
                ],
                [
                    0.41474,
                    -2.04943,
                    -0.92116
                ],
                [
                    0.21537,
                    -0.9548,
                    -1.47135
                ]
            ],
            [
                [
                    -0.89174,
                    0.48611,
                    -0.20149
                ],
                [
                    0.41507,
                    -2.049,
                    0.92097
                ],
                [
                    -0.21537,
                    0.9548,
                    -1.47135
                ]
            ],
            [
                [
                    -2.04907,
                    -0.41507,
                    -0.92118
                ],
                [
                    -0.48702,
                    -0.89179,
                    -0.20158
                ],
                [
                    -0.95467,
                    -0.21573,
                    -1.47143
                ]
            ],
            [
                [
                    -2.05003,
                    -0.41526,
                    0.92144
                ],
                [
                    -0.48665,
                    -0.89214,
                    0.20162
                ],
                [
                    0.95467,
                    0.21573,
                    -1.47143
                ]
            ]
        ]
    },
    "band_gap": 4.8686,
    "is_direct": false,
    "formula": "CsLiWO4"
}