{
    "mp_id": "mp-1223039",
    "nelements": 4,
    "nsites": 18,
    "elements": [
        "K",
        "O",
        "Ta",
        "W"
    ],
    "structure": {
        "@module": "pymatgen.core.structure",
        "@class": "Structure",
        "charge": null,
        "lattice": {
            "matrix": [
                [
                    -3.68537301,
                    5.15532823,
                    3.70934195
                ],
                [
                    3.68537301,
                    -5.15532823,
                    3.70934195
                ],
                [
                    3.68537301,
                    5.15532823,
                    -3.70934195
                ]
            ],
            "a": 7.342928644886943,
            "b": 7.342928644886943,
            "c": 7.342928644886943,
            "alpha": 119.74920801397002,
            "beta": 90.81164925900174,
            "gamma": 119.31626670772032,
            "volume": 281.8997135681058
        },
        "sites": [
            {
                "species": [
                    {
                        "element": "K",
                        "occu": 1
                    }
                ],
                "abc": [
                    0.20659466,
                    0.62312177,
                    0.0834729
                ],
                "xyz": [
                    1.8426865418537302,
                    -1.7170037709333483,
                    2.768072430745084
                ],
                "label": "K",
                "properties": {}
            },
            {
                "species": [
                    {
                        "element": "K",
                        "occu": 1
                    }
                ],
                "abc": [
                    0.53964787,
                    0.12312177,
                    0.9165271
                ],
                "xyz": [
                    1.8426901903730102,
                    6.872326794051836,
                    -0.9412731915034471
                ],
                "label": "K",
                "properties": {}
            },
            {
                "species": [
                    {
                        "element": "Ta",
                        "occu": 1
                    }
                ],
                "abc": [
                    0.98853852,
                    0.48853852,
                    0.5
                ],
                "xyz": [
                    0.0,
                    5.15532823,
                    3.6243128528538273
                ],
                "label": "Ta",
                "properties": {}
            },
            {
                "species": [
                    {
                        "element": "Ta",
                        "occu": 1
                    }
                ],
                "abc": [
                    0.98853852,
                    0.98853852,
                    0.0
                ],
                "xyz": [
                    0.0,
                    0.0,
                    7.333654802853828
                ],
                "label": "Ta",
                "properties": {}
            },
            {
                "species": [
                    {
                        "element": "W",
                        "occu": 1
                    }
                ],
                "abc": [
                    0.47430971,
                    0.46865123,
                    0.50565848
                ],
                "xyz": [
                    1.842686505,
                    2.636006758365781,
                    1.622104359716197
                ],
                "label": "W",
                "properties": {}
            },
            {
                "species": [
                    {
                        "element": "W",
                        "occu": 1
                    }
                ],
                "abc": [
                    0.96299275,
                    0.96865123,
                    0.49434152
                ],
                "xyz": [
                    1.842686505,
                    2.519321471634219,
                    5.331446309716197
                ],
                "label": "W",
                "properties": {}
            },
            {
                "species": [
                    {
                        "element": "O",
                        "occu": 1
                    }
                ],
                "abc": [
                    0.92833331,
                    0.24714605,
                    0.18118726
                ],
                "xyz": [
                    -1.842686505,
                    4.4458237077887,
                    3.6881693970835956
                ],
                "label": "O",
                "properties": {}
            },
            {
                "species": [
                    {
                        "element": "O",
                        "occu": 1
                    }
                ],
                "abc": [
                    0.29825047,
                    0.23709634,
                    0.56115513
                ],
                "xyz": [
                    1.8426901903730095,
                    3.20820849586841,
                    -0.09573188403502364
                ],
                "label": "O",
                "properties": {}
            },
            {
                "species": [
                    {
                        "element": "O",
                        "occu": 1
                    }
                ],
                "abc": [
                    0.93172317,
                    0.87046681,
                    0.19602416
                ],
                "xyz": [
                    0.4966696127370781,
                    1.3263655277850794,
                    5.957818254782149
                ],
                "label": "O",
                "properties": {}
            },
            {
                "species": [
                    {
                        "element": "O",
                        "occu": 1
                    }
                ],
                "abc": [
                    0.30745932,
                    0.61140149,
                    0.55977754
                ],
                "xyz": [
                    3.1831293074390272,
                    1.3189153051934952,
                    1.3319626369541764
                ],
                "label": "O",
                "properties": {}
            },
            {
                "species": [
                    {
                        "element": "O",
                        "occu": 1
                    }
                ],
                "abc": [
                    0.30745932,
                    0.24768278,
                    0.19605783
                ],
                "xyz": [
                    0.502247387933983,
                    1.3189101498652651,
                    1.3319663462961264
                ],
                "label": "O",
                "properties": {}
            },
            {
                "species": [
                    {
                        "element": "O",
                        "occu": 1
                    }
                ],
                "abc": [
                    0.93172317,
                    0.23570001,
                    0.56125636
                ],
                "xyz": [
                    -0.49666592736406834,
                    6.48168860245685,
                    2.2484800141240986
                ],
                "label": "O",
                "properties": {}
            },
            {
                "species": [
                    {
                        "element": "O",
                        "occu": 1
                    }
                ],
                "abc": [
                    0.0659598,
                    0.74714605,
                    0.81881274
                ],
                "xyz": [
                    5.5280557927732605,
                    0.7095097290928134,
                    -0.02116880648103603
                ],
                "label": "O",
                "properties": {}
            },
            {
                "species": [
                    {
                        "element": "O",
                        "occu": 1
                    }
                ],
                "abc": [
                    0.67594121,
                    0.73709634,
                    0.43884487
                ],
                "xyz": [
                    1.8426865050000005,
                    1.94711457880336,
                    3.613613775306926
                ],
                "label": "O",
                "properties": {}
            },
            {
                "species": [
                    {
                        "element": "O",
                        "occu": 1
                    }
                ],
                "abc": [
                    0.05162495,
                    0.11140149,
                    0.80394217
                ],
                "xyz": [
                    3.1831256220660173,
                    3.836418080134735,
                    -2.3773756037038734
                ],
                "label": "O",
                "properties": {}
            },
            {
                "species": [
                    {
                        "element": "O",
                        "occu": 1
                    }
                ],
                "abc": [
                    0.67444265,
                    0.37046681,
                    0.43874364
                ],
                "xyz": [
                    0.496669612737078,
                    3.8289627022149206,
                    2.2484763047821494
                ],
                "label": "O",
                "properties": {}
            },
            {
                "species": [
                    {
                        "element": "O",
                        "occu": 1
                    }
                ],
                "abc": [
                    0.67444265,
                    0.73570001,
                    0.80397584
                ],
                "xyz": [
                    3.188707082635932,
                    3.8289575468866905,
                    2.248480014124099
                ],
                "label": "O",
                "properties": {}
            },
            {
                "species": [
                    {
                        "element": "O",
                        "occu": 1
                    }
                ],
                "abc": [
                    0.05162495,
                    0.74768278,
                    0.44022246
                ],
                "xyz": [
                    4.187616712560973,
                    -1.3189153051934954,
                    1.331970055638077
                ],
                "label": "O",
                "properties": {}
            }
        ]
    },
    "spacegroup": {
        "source": "spglib",
        "symbol": "Ima2",
        "number": 46,
        "point_group": "mm2",
        "crystal_system": "orthorhombic",
        "hall": "I 2 -2a"
    },
    "dielectric": {
        "epsilon_ionic": [
            [
                30.03255051,
                -1e-08,
                0.00071711
            ],
            [
                -1e-08,
                36.34617792,
                -0.0009524
            ],
            [
                0.00071711,
                -0.0009524,
                26.54732857
            ]
        ],
        "epsilon_ionic_avg": 30.975352333333333,
        "epsilon_ionic_eig": [
            30.032550657550626,
            26.54732832988078,
            36.34617801256859
        ],
        "epsilon_electronic": [
            [
                4.50771163,
                0.0,
                0.0
            ],
            [
                0.0,
                4.567079,
                0.0
            ],
            [
                0.0,
                0.0,
                4.50979067
            ]
        ],
        "epsilon_electronic_avg": 4.528193766666667,
        "epsilon_electronic_eig": [
            4.50771163,
            4.567079,
            4.50979067
        ]
    },
    "phonon": {
        "lowest_freq": -0.05292392341363576,
        "frequency": [
            -0.05292392341363576,
            -0.04409004351657869,
            -0.04091698081741078,
            1.5007603795000566,
            1.5036989621519201,
            2.04700530571997,
            2.126389718344126,
            2.1996901229396193,
            2.5093417870401242,
            2.783530647364243,
            2.8381700360744673,
            3.1913541686564773,
            4.237869375788137,
            4.4790217888754835,
            4.520489842486202,
            4.544608471420913,
            5.248925578414498,
            6.274298861214131,
            6.500588028965957,
            6.720545700560743,
            6.751939392497706,
            7.1898079385658935,
            7.3636863862491975,
            7.856558265687498,
            8.287484631366002,
            8.754423439210143,
            8.757306740873199,
            9.219779066899841,
            9.623933772991956,
            9.646251298457669,
            10.24154173111069,
            10.293745476032857,
            10.76516621150818,
            11.200566134095936,
            12.120540951811181,
            12.190080682440408,
            12.404251298892577,
            12.858393204356867,
            12.91395628779526,
            13.334058342764168,
            13.679625687176054,
            14.798852056988409,
            16.453110324806108,
            16.919215102857287,
            17.83431134006399,
            17.96075783134507,
            18.217622519785433,
            19.067801816132476,
            19.338138903999923,
            19.923799219607318,
            21.243644089209784,
            26.514833593995842,
            27.12010588648714,
            27.467577169053317
        ]
    },
    "born_effective_charge": {
        "avg_abs_trace": 3.904183518518518,
        "tensors": [
            [
                [
                    1.40833,
                    0.00024,
                    -6e-05
                ],
                [
                    0.0,
                    1.21859,
                    -0.15983
                ],
                [
                    0.0,
                    -0.10751,
                    1.14976
                ]
            ],
            [
                [
                    1.40833,
                    -0.00024,
                    -6e-05
                ],
                [
                    0.0,
                    1.21847,
                    0.15934
                ],
                [
                    -0.0,
                    0.10751,
                    1.14976
                ]
            ],
            [
                [
                    9.04267,
                    -2.35512,
                    0.00012
                ],
                [
                    -2.16721,
                    8.43341,
                    -0.00055
                ],
                [
                    0.0,
                    -0.0,
                    6.67644
                ]
            ],
            [
                [
                    9.04267,
                    2.35512,
                    0.00012
                ],
                [
                    2.16721,
                    8.43341,
                    -0.00055
                ],
                [
                    0.0,
                    -0.0,
                    6.67644
                ]
            ],
            [
                [
                    7.2695,
                    3e-05,
                    0.00033
                ],
                [
                    0.0,
                    8.1309,
                    2.2705
                ],
                [
                    0.0,
                    2.42199,
                    9.37668
                ]
            ],
            [
                [
                    7.2695,
                    -3e-05,
                    0.00033
                ],
                [
                    0.0,
                    8.13141,
                    -2.26919
                ],
                [
                    0.0,
                    -2.42199,
                    9.37668
                ]
            ],
            [
                [
                    -5.83159,
                    7e-05,
                    -0.00019
                ],
                [
                    0.0,
                    -1.83638,
                    0.02662
                ],
                [
                    0.0,
                    0.0238,
                    -1.26922
                ]
            ],
            [
                [
                    -0.88466,
                    0.00018,
                    -9e-05
                ],
                [
                    -0.0,
                    -1.14256,
                    -0.00774
                ],
                [
                    0.0,
                    0.27898,
                    -5.78122
                ]
            ],
            [
                [
                    -2.74055,
                    -1.93769,
                    1.36723
                ],
                [
                    -1.96222,
                    -3.66753,
                    2.09452
                ],
                [
                    1.3133,
                    1.93021,
                    -2.69534
                ]
            ],
            [
                [
                    -2.76156,
                    1.91184,
                    0.86571
                ],
                [
                    1.92087,
                    -3.73436,
                    -1.59643
                ],
                [
                    1.01619,
                    -1.773,
                    -2.38088
                ]
            ],
            [
                [
                    -2.7617,
                    -1.91178,
                    -0.86574
                ],
                [
                    -1.92087,
                    -3.73436,
                    -1.59643
                ],
                [
                    -1.01619,
                    -1.773,
                    -2.38088
                ]
            ],
            [
                [
                    -2.74044,
                    1.93739,
                    -1.36729
                ],
                [
                    1.96222,
                    -3.66753,
                    2.09452
                ],
                [
                    -1.3133,
                    1.93021,
                    -2.69534
                ]
            ],
            [
                [
                    -5.83159,
                    -7e-05,
                    -0.00019
                ],
                [
                    -0.0,
                    -1.83623,
                    -0.02596
                ],
                [
                    -0.0,
                    -0.0238,
                    -1.26922
                ]
            ],
            [
                [
                    -0.88466,
                    -0.00018,
                    -9e-05
                ],
                [
                    -0.0,
                    -1.14297,
                    0.00768
                ],
                [
                    0.0,
                    -0.27898,
                    -5.78122
                ]
            ],
            [
                [
                    -2.76156,
                    -1.91184,
                    0.86571
                ],
                [
                    -1.92094,
                    -3.73469,
                    1.59661
                ],
                [
                    1.01619,
                    1.773,
                    -2.38088
                ]
            ],
            [
                [
                    -2.74055,
                    1.93769,
                    1.36723
                ],
                [
                    1.96176,
                    -3.66745,
                    -2.09486
                ],
                [
                    1.3133,
                    -1.93021,
                    -2.69534
                ]
            ],
            [
                [
                    -2.74044,
                    -1.93739,
                    -1.36729
                ],
                [
                    -1.96176,
                    -3.66745,
                    -2.09486
                ],
                [
                    -1.3133,
                    -1.93021,
                    -2.69534
                ]
            ],
            [
                [
                    -2.7617,
                    1.91178,
                    -0.86574
                ],
                [
                    1.92094,
                    -3.73469,
                    1.59661
                ],
                [
                    -1.01619,
                    1.773,
                    -2.38088
                ]
            ]
        ]
    },
    "band_gap": 3.3596,
    "is_direct": false,
    "formula": "KTaWO6"
}