{
    "mp_id": "mp-1214502",
    "nelements": 4,
    "nsites": 15,
    "elements": [
        "Ba",
        "Cd",
        "Nb",
        "O"
    ],
    "structure": {
        "@module": "pymatgen.core.structure",
        "@class": "Structure",
        "charge": null,
        "lattice": {
            "matrix": [
                [
                    5.9136587,
                    0.0,
                    0.0
                ],
                [
                    -2.95682935,
                    5.1213783,
                    0.0
                ],
                [
                    0.0,
                    0.0,
                    7.30308751
                ]
            ],
            "a": 5.9136587,
            "b": 5.913658385190365,
            "c": 7.30308751,
            "alpha": 90.0,
            "beta": 90.0,
            "gamma": 120.00000176097745,
            "volume": 221.18191696561175
        },
        "sites": [
            {
                "species": [
                    {
                        "element": "Ba",
                        "occu": 1
                    }
                ],
                "abc": [
                    0.0,
                    0.0,
                    0.0
                ],
                "xyz": [
                    0.0,
                    0.0,
                    0.0
                ],
                "label": "Ba",
                "properties": {}
            },
            {
                "species": [
                    {
                        "element": "Ba",
                        "occu": 1
                    }
                ],
                "abc": [
                    0.333333,
                    0.666667,
                    0.6626049
                ],
                "xyz": [
                    -2.956829350031498e-06,
                    3.4142539071261,
                    4.8390615692548
                ],
                "label": "Ba",
                "properties": {}
            },
            {
                "species": [
                    {
                        "element": "Ba",
                        "occu": 1
                    }
                ],
                "abc": [
                    0.666667,
                    0.333333,
                    0.3373951
                ],
                "xyz": [
                    2.9568323068293503,
                    1.7071243928739,
                    2.464025940745201
                ],
                "label": "Ba",
                "properties": {}
            },
            {
                "species": [
                    {
                        "element": "Nb",
                        "occu": 1
                    }
                ],
                "abc": [
                    0.333333,
                    0.666667,
                    0.1682048
                ],
                "xyz": [
                    -2.956829350031498e-06,
                    3.4142539071261,
                    1.228414374002048
                ],
                "label": "Nb",
                "properties": {}
            },
            {
                "species": [
                    {
                        "element": "Nb",
                        "occu": 1
                    }
                ],
                "abc": [
                    0.666667,
                    0.333333,
                    0.8317952
                ],
                "xyz": [
                    2.9568323068293503,
                    1.7071243928739,
                    6.074673135997952
                ],
                "label": "Nb",
                "properties": {}
            },
            {
                "species": [
                    {
                        "element": "Cd",
                        "occu": 1
                    }
                ],
                "abc": [
                    0.0,
                    0.0,
                    0.5
                ],
                "xyz": [
                    0.0,
                    0.0,
                    3.651543755
                ],
                "label": "Cd",
                "properties": {}
            },
            {
                "species": [
                    {
                        "element": "O",
                        "occu": 1
                    }
                ],
                "abc": [
                    0.17508699,
                    0.82491301,
                    0.31581149
                ],
                "xyz": [
                    -1.4037222974945303,
                    4.224691588801683,
                    2.3063989481334897
                ],
                "label": "O",
                "properties": {}
            },
            {
                "species": [
                    {
                        "element": "O",
                        "occu": 1
                    }
                ],
                "abc": [
                    0.82491301,
                    0.17508699,
                    0.68418851
                ],
                "xyz": [
                    4.36055164749453,
                    0.896686711198317,
                    4.9966885618665104
                ],
                "label": "O",
                "properties": {}
            },
            {
                "species": [
                    {
                        "element": "O",
                        "occu": 1
                    }
                ],
                "abc": [
                    0.17508699,
                    0.35017299,
                    0.31581149
                ],
                "xyz": [
                    2.9272610564401447e-06,
                    1.793368352232117,
                    2.3063989481334897
                ],
                "label": "O",
                "properties": {}
            },
            {
                "species": [
                    {
                        "element": "O",
                        "occu": 1
                    }
                ],
                "abc": [
                    0.82491301,
                    0.64982701,
                    0.68418851
                ],
                "xyz": [
                    2.956826422738943,
                    3.328009947767883,
                    4.9966885618665104
                ],
                "label": "O",
                "properties": {}
            },
            {
                "species": [
                    {
                        "element": "O",
                        "occu": 1
                    }
                ],
                "abc": [
                    0.64982701,
                    0.82491301,
                    0.31581149
                ],
                "xyz": [
                    1.4037281520166438,
                    4.224691588801683,
                    2.3063989481334897
                ],
                "label": "O",
                "properties": {}
            },
            {
                "species": [
                    {
                        "element": "O",
                        "occu": 1
                    }
                ],
                "abc": [
                    0.35017299,
                    0.17508699,
                    0.68418851
                ],
                "xyz": [
                    1.5531011979833567,
                    0.896686711198317,
                    4.9966885618665104
                ],
                "label": "O",
                "properties": {}
            },
            {
                "species": [
                    {
                        "element": "O",
                        "occu": 1
                    }
                ],
                "abc": [
                    0.5,
                    0.0,
                    0.0
                ],
                "xyz": [
                    2.95682935,
                    0.0,
                    0.0
                ],
                "label": "O",
                "properties": {}
            },
            {
                "species": [
                    {
                        "element": "O",
                        "occu": 1
                    }
                ],
                "abc": [
                    0.0,
                    0.5,
                    0.0
                ],
                "xyz": [
                    -1.478414675,
                    2.56068915,
                    0.0
                ],
                "label": "O",
                "properties": {}
            },
            {
                "species": [
                    {
                        "element": "O",
                        "occu": 1
                    }
                ],
                "abc": [
                    0.5,
                    0.5,
                    0.0
                ],
                "xyz": [
                    1.478414675,
                    2.56068915,
                    0.0
                ],
                "label": "O",
                "properties": {}
            }
        ]
    },
    "spacegroup": {
        "source": "spglib",
        "symbol": "P-3m1",
        "number": 164,
        "point_group": "-3m",
        "crystal_system": "trigonal",
        "hall": "-P 3 2\""
    },
    "dielectric": {
        "epsilon_ionic": [
            [
                68.0778826,
                -5.27e-06,
                0.0
            ],
            [
                -5.27e-06,
                68.09541763,
                0.00060204
            ],
            [
                0.0,
                0.00060204,
                35.17237261
            ]
        ],
        "epsilon_ionic_avg": 57.115224279999985,
        "epsilon_ionic_eig": [
            68.07788259841612,
            68.0954176425929,
            35.172372598990925
        ],
        "epsilon_electronic": [
            [
                5.08218609,
                5e-07,
                -0.0
            ],
            [
                5e-07,
                5.08218625,
                0.0
            ],
            [
                -0.0,
                0.0,
                4.94944104
            ]
        ],
        "epsilon_electronic_avg": 5.037937793333334,
        "epsilon_electronic_eig": [
            5.082185663640445,
            5.082186676359556,
            4.94944104
        ]
    },
    "phonon": {
        "lowest_freq": -0.12364358745780087,
        "frequency": [
            -0.12364358745780087,
            -0.12364357530140105,
            -0.019350471162402214,
            0.19506634039371656,
            1.8918041682590738,
            1.8918043039074317,
            1.9315104116716795,
            2.325743761197541,
            2.4115682104682907,
            2.4147497806104767,
            2.414750013396614,
            2.7407853594463396,
            2.740785604668144,
            2.9845907513445824,
            3.205255618913706,
            3.20525590485048,
            3.2300309766553235,
            3.230031199866917,
            4.543893713142676,
            4.543894113852071,
            5.1292173438133615,
            5.663423130474942,
            5.6634232167832135,
            6.586080638556125,
            7.3259122407416255,
            7.325912874601566,
            7.668906536234983,
            8.116678348315995,
            8.116678739757111,
            8.529777405293103,
            9.901595500497725,
            9.901595944789987,
            10.95227948749305,
            10.952279699485562,
            11.302802444288298,
            11.541751422360035,
            15.334460417345408,
            15.334460584694066,
            17.20878308373028,
            17.571249014396077,
            17.57124964030524,
            18.94362033215966,
            18.94362084821757,
            23.798580923406174,
            24.055147004790182
        ]
    },
    "born_effective_charge": {
        "avg_abs_trace": 3.3307500000000005,
        "tensors": [
            [
                [
                    3.00277,
                    0.0,
                    0.0
                ],
                [
                    -0.0,
                    3.00245,
                    4e-05
                ],
                [
                    -0.0,
                    -0.0,
                    2.18608
                ]
            ],
            [
                [
                    2.67956,
                    1e-05,
                    -1e-05
                ],
                [
                    -0.0,
                    2.6799,
                    9e-05
                ],
                [
                    -0.0,
                    0.0,
                    3.03859
                ]
            ],
            [
                [
                    2.67956,
                    -1e-05,
                    1e-05
                ],
                [
                    -0.0,
                    2.67997,
                    6e-05
                ],
                [
                    -0.0,
                    -0.0,
                    3.03834
                ]
            ],
            [
                [
                    7.03794,
                    -0.00011,
                    5e-05
                ],
                [
                    0.0,
                    7.03967,
                    0.00014
                ],
                [
                    -0.0,
                    -0.0,
                    6.39505
                ]
            ],
            [
                [
                    7.03794,
                    0.00011,
                    -5e-05
                ],
                [
                    0.0,
                    7.03949,
                    5e-05
                ],
                [
                    -0.0,
                    0.0,
                    6.3942
                ]
            ],
            [
                [
                    2.91204,
                    0.0,
                    0.0
                ],
                [
                    0.0,
                    2.91349,
                    -1e-05
                ],
                [
                    -0.0,
                    0.0,
                    3.18482
                ]
            ],
            [
                [
                    -3.02807,
                    0.62625,
                    0.84394
                ],
                [
                    0.62681,
                    -2.30461,
                    -0.4871
                ],
                [
                    0.86894,
                    -0.50168,
                    -2.61217
                ]
            ],
            [
                [
                    -3.02847,
                    0.62617,
                    0.84414
                ],
                [
                    0.62678,
                    -2.30453,
                    -0.48713
                ],
                [
                    0.86887,
                    -0.50164,
                    -2.61223
                ]
            ],
            [
                [
                    -1.94316,
                    -0.00027,
                    0.00017
                ],
                [
                    -0.0,
                    -3.39032,
                    0.97437
                ],
                [
                    0.0,
                    1.00336,
                    -2.61217
                ]
            ],
            [
                [
                    -1.94316,
                    0.00027,
                    -0.00017
                ],
                [
                    -0.0,
                    -3.39022,
                    0.97446
                ],
                [
                    0.0,
                    1.00328,
                    -2.61223
                ]
            ],
            [
                [
                    -3.02847,
                    -0.62617,
                    -0.84414
                ],
                [
                    -0.62681,
                    -2.30461,
                    -0.4871
                ],
                [
                    -0.86894,
                    -0.50168,
                    -2.61217
                ]
            ],
            [
                [
                    -3.02807,
                    -0.62625,
                    -0.84394
                ],
                [
                    -0.62678,
                    -2.30453,
                    -0.48713
                ],
                [
                    -0.86887,
                    -0.50164,
                    -2.61223
                ]
            ],
            [
                [
                    -1.84562,
                    0.0,
                    0.0
                ],
                [
                    -0.0,
                    -4.38999,
                    1.78295
                ],
                [
                    0.0,
                    1.58921,
                    -2.85464
                ]
            ],
            [
                [
                    -3.7524,
                    -1.10073,
                    -1.54304
                ],
                [
                    -1.10139,
                    -2.48307,
                    -0.89185
                ],
                [
                    -1.3763,
                    -0.79461,
                    -2.85464
                ]
            ],
            [
                [
                    -3.7524,
                    1.10073,
                    1.54304
                ],
                [
                    1.10139,
                    -2.48307,
                    -0.89185
                ],
                [
                    1.3763,
                    -0.79461,
                    -2.85464
                ]
            ]
        ]
    },
    "band_gap": 3.0740000000000003,
    "is_direct": false,
    "formula": "Ba3Nb2CdO9"
}