{
    "mp_id": "mp-1228084",
    "nelements": 4,
    "nsites": 17,
    "elements": [
        "Ba",
        "Cu",
        "O",
        "Sc"
    ],
    "structure": {
        "@module": "pymatgen.core.structure",
        "@class": "Structure",
        "charge": null,
        "lattice": {
            "matrix": [
                [
                    0.0,
                    4.14199407,
                    7.85985166
                ],
                [
                    4.10787112,
                    0.0,
                    7.85985166
                ],
                [
                    4.10787112,
                    4.14199407,
                    0.0
                ]
            ],
            "a": 8.884446127537716,
            "b": 8.868589135580406,
            "c": 5.833585519596436,
            "alpha": 70.96354854456723,
            "beta": 70.66935924965233,
            "gamma": 38.367092205780445,
            "volume": 267.46725937612274
        },
        "sites": [
            {
                "species": [
                    {
                        "element": "Ba",
                        "occu": 1
                    }
                ],
                "abc": [
                    0.87803089,
                    0.38593347,
                    0.12196911
                ],
                "xyz": [
                    2.0863983401554895,
                    4.14199407,
                    9.934572373126837
                ],
                "label": "Ba",
                "properties": {}
            },
            {
                "species": [
                    {
                        "element": "Ba",
                        "occu": 1
                    }
                ],
                "abc": [
                    0.38593347,
                    0.87803089,
                    0.61406653
                ],
                "xyz": [
                    6.129343899844511,
                    4.14199407,
                    9.934572373126837
                ],
                "label": "Ba",
                "properties": {}
            },
            {
                "species": [
                    {
                        "element": "Ba",
                        "occu": 1
                    }
                ],
                "abc": [
                    0.61406653,
                    0.12196911,
                    0.38593347
                ],
                "xyz": [
                    2.0863983401554895,
                    4.14199407,
                    5.785130946873163
                ],
                "label": "Ba",
                "properties": {}
            },
            {
                "species": [
                    {
                        "element": "Ba",
                        "occu": 1
                    }
                ],
                "abc": [
                    0.12196911,
                    0.61406653,
                    0.87803089
                ],
                "xyz": [
                    6.129343899844511,
                    4.14199407,
                    5.785130946873163
                ],
                "label": "Ba",
                "properties": {}
            },
            {
                "species": [
                    {
                        "element": "Sc",
                        "occu": 1
                    }
                ],
                "abc": [
                    0.5,
                    0.0,
                    0.0
                ],
                "xyz": [
                    0.0,
                    2.070997035,
                    3.92992583
                ],
                "label": "Sc",
                "properties": {}
            },
            {
                "species": [
                    {
                        "element": "Sc",
                        "occu": 1
                    }
                ],
                "abc": [
                    0.0,
                    0.5,
                    0.5
                ],
                "xyz": [
                    4.10787112,
                    2.070997035,
                    3.92992583
                ],
                "label": "Sc",
                "properties": {}
            },
            {
                "species": [
                    {
                        "element": "Cu",
                        "occu": 1
                    }
                ],
                "abc": [
                    0.72795984,
                    0.27204016,
                    0.72795984
                ],
                "xyz": [
                    4.10787112,
                    6.030410680956297,
                    7.85985166
                ],
                "label": "Cu",
                "properties": {}
            },
            {
                "species": [
                    {
                        "element": "Cu",
                        "occu": 1
                    }
                ],
                "abc": [
                    0.27204016,
                    0.72795984,
                    0.27204016
                ],
                "xyz": [
                    4.10787112,
                    2.253577459043702,
                    7.85985166
                ],
                "label": "Cu",
                "properties": {}
            },
            {
                "species": [
                    {
                        "element": "O",
                        "occu": 1
                    }
                ],
                "abc": [
                    0.88033917,
                    0.34323944,
                    0.65676056
                ],
                "xyz": [
                    4.10787112,
                    6.366657966658601,
                    9.617146368948992
                ],
                "label": "O",
                "properties": {}
            },
            {
                "species": [
                    {
                        "element": "O",
                        "occu": 1
                    }
                ],
                "abc": [
                    0.34323944,
                    0.88033917,
                    0.11966083
                ],
                "xyz": [
                    4.10787112,
                    1.9173301733413988,
                    9.617146368948992
                ],
                "label": "O",
                "properties": {}
            },
            {
                "species": [
                    {
                        "element": "O",
                        "occu": 1
                    }
                ],
                "abc": [
                    0.65676056,
                    0.11966083,
                    0.88033917
                ],
                "xyz": [
                    4.10787112,
                    6.366657966658601,
                    6.102556951051008
                ],
                "label": "O",
                "properties": {}
            },
            {
                "species": [
                    {
                        "element": "O",
                        "occu": 1
                    }
                ],
                "abc": [
                    0.11966083,
                    0.65676056,
                    0.34323944
                ],
                "xyz": [
                    4.10787112,
                    1.9173301733413988,
                    6.102556951051008
                ],
                "label": "O",
                "properties": {}
            },
            {
                "species": [
                    {
                        "element": "O",
                        "occu": 1
                    }
                ],
                "abc": [
                    0.74449121,
                    0.74449121,
                    0.25550879
                ],
                "xyz": [
                    4.10787112,
                    4.14199407,
                    11.703180945547818
                ],
                "label": "O",
                "properties": {}
            },
            {
                "species": [
                    {
                        "element": "O",
                        "occu": 1
                    }
                ],
                "abc": [
                    0.25550879,
                    0.25550879,
                    0.74449121
                ],
                "xyz": [
                    4.10787112,
                    4.14199407,
                    4.016522374452183
                ],
                "label": "O",
                "properties": {}
            },
            {
                "species": [
                    {
                        "element": "O",
                        "occu": 1
                    }
                ],
                "abc": [
                    0.25,
                    0.25,
                    0.25
                ],
                "xyz": [
                    2.05393556,
                    2.070997035,
                    3.92992583
                ],
                "label": "O",
                "properties": {}
            },
            {
                "species": [
                    {
                        "element": "O",
                        "occu": 1
                    }
                ],
                "abc": [
                    0.75,
                    0.75,
                    0.75
                ],
                "xyz": [
                    6.161806680000001,
                    6.212991105,
                    11.78977749
                ],
                "label": "O",
                "properties": {}
            },
            {
                "species": [
                    {
                        "element": "O",
                        "occu": 1
                    }
                ],
                "abc": [
                    0.5,
                    0.5,
                    0.5
                ],
                "xyz": [
                    4.10787112,
                    4.14199407,
                    7.85985166
                ],
                "label": "O",
                "properties": {}
            }
        ]
    },
    "spacegroup": {
        "source": "spglib",
        "symbol": "Fmmm",
        "number": 69,
        "point_group": "mmm",
        "crystal_system": "orthorhombic",
        "hall": "-F 2 2"
    },
    "dielectric": {
        "epsilon_ionic": [
            [
                14.16904241,
                2e-08,
                -2e-08
            ],
            [
                2e-08,
                15.64202577,
                -1.2e-07
            ],
            [
                -2e-08,
                -1.2e-07,
                13.50917027
            ]
        ],
        "epsilon_ionic_avg": 14.440079483333335,
        "epsilon_ionic_eig": [
            14.169042409999998,
            15.642025770000014,
            13.509170269999993
        ],
        "epsilon_electronic": [
            [
                4.49386187,
                0.0,
                0.0
            ],
            [
                0.0,
                7.56743144,
                0.0
            ],
            [
                0.0,
                0.0,
                6.90309051
            ]
        ],
        "epsilon_electronic_avg": 6.321461273333334,
        "epsilon_electronic_eig": [
            4.49386187,
            7.56743144,
            6.90309051
        ]
    },
    "phonon": {
        "lowest_freq": -0.04288156496602901,
        "frequency": [
            -0.04288156496602901,
            -0.015805954564216674,
            -0.011079590885157555,
            2.481556850160126,
            2.5024582743443338,
            2.9258864861837326,
            2.9558634285238643,
            2.9681204008614706,
            3.0583554364905834,
            3.2139933328959107,
            3.341164039177147,
            3.386578622667677,
            3.4821870246510955,
            3.532349831438225,
            4.21017092181939,
            4.41796351662885,
            4.4623874160141055,
            5.249099973244792,
            5.2555864835201085,
            5.3882908323241026,
            5.502848955788863,
            5.5195236786393185,
            5.562605459260663,
            5.7648142724885165,
            6.125948496765253,
            6.234197474262368,
            6.292113851498285,
            6.3887947573767105,
            6.784180820721386,
            7.039307701607269,
            7.337008530030485,
            7.524706025657309,
            7.539756549072634,
            7.666854744795111,
            8.581416079586957,
            8.998227693252366,
            9.29038520254305,
            9.552534891361356,
            9.77209108237395,
            11.72083569524572,
            12.234508630440564,
            12.558005061757942,
            14.448668795799945,
            14.816315183335353,
            15.189905976298899,
            15.594071799105098,
            17.252226806297692,
            17.740139062387446,
            18.9233013303511,
            19.31677744538078,
            21.889426397315134
        ]
    },
    "born_effective_charge": {
        "avg_abs_trace": 2.491144117647059,
        "tensors": [
            [
                [
                    2.91827,
                    -0.0,
                    -0.16198
                ],
                [
                    0.00149,
                    2.8185,
                    -5e-05
                ],
                [
                    0.24055,
                    0.0,
                    2.48626
                ]
            ],
            [
                [
                    2.91832,
                    -0.0,
                    0.1616
                ],
                [
                    -0.00149,
                    2.8185,
                    -5e-05
                ],
                [
                    -0.24055,
                    0.0,
                    2.48626
                ]
            ],
            [
                [
                    2.91827,
                    -0.0,
                    0.16198
                ],
                [
                    0.00149,
                    2.8185,
                    5e-05
                ],
                [
                    -0.24058,
                    0.0,
                    2.48618
                ]
            ],
            [
                [
                    2.91832,
                    -0.0,
                    -0.1616
                ],
                [
                    -0.00149,
                    2.8185,
                    5e-05
                ],
                [
                    0.24058,
                    0.0,
                    2.48618
                ]
            ],
            [
                [
                    4.6181,
                    -0.0,
                    -0.0
                ],
                [
                    0.0,
                    4.36779,
                    -2.04018
                ],
                [
                    -0.0,
                    0.76582,
                    5.07536
                ]
            ],
            [
                [
                    4.6181,
                    -0.0,
                    -0.0
                ],
                [
                    0.0,
                    4.36779,
                    2.04018
                ],
                [
                    -0.0,
                    -0.76582,
                    5.07536
                ]
            ],
            [
                [
                    -0.08034,
                    -2e-05,
                    -0.0
                ],
                [
                    0.0,
                    -1.34462,
                    0.0
                ],
                [
                    -0.0,
                    -0.00017,
                    2.67976
                ]
            ],
            [
                [
                    -0.08034,
                    2e-05,
                    -0.0
                ],
                [
                    0.0,
                    -1.34461,
                    0.0
                ],
                [
                    -0.0,
                    0.00017,
                    2.67976
                ]
            ],
            [
                [
                    -1.60833,
                    -6e-05,
                    0.00024
                ],
                [
                    0.0,
                    -1.70642,
                    -1.62043
                ],
                [
                    -0.0,
                    -0.15627,
                    -3.51085
                ]
            ],
            [
                [
                    -1.60833,
                    6e-05,
                    0.00024
                ],
                [
                    0.0,
                    -1.70578,
                    1.6205
                ],
                [
                    -0.0,
                    0.15627,
                    -3.51085
                ]
            ],
            [
                [
                    -1.60833,
                    -6e-05,
                    -0.00024
                ],
                [
                    0.0,
                    -1.70642,
                    1.62043
                ],
                [
                    -0.0,
                    0.15697,
                    -3.51085
                ]
            ],
            [
                [
                    -1.60833,
                    6e-05,
                    -0.00024
                ],
                [
                    0.0,
                    -1.70578,
                    -1.6205
                ],
                [
                    -0.0,
                    -0.15697,
                    -3.51085
                ]
            ],
            [
                [
                    -2.42095,
                    -0.0,
                    2e-05
                ],
                [
                    0.0,
                    -4.12507,
                    -0.00044
                ],
                [
                    -0.0,
                    0.0,
                    -2.84046
                ]
            ],
            [
                [
                    -2.42095,
                    -0.0,
                    -2e-05
                ],
                [
                    0.0,
                    -4.12507,
                    0.00044
                ],
                [
                    -0.0,
                    0.0,
                    -2.84022
                ]
            ],
            [
                [
                    -3.95517,
                    -0.0,
                    -0.0
                ],
                [
                    -0.0,
                    -2.38737,
                    0.0
                ],
                [
                    0.0,
                    0.0,
                    -2.30746
                ]
            ],
            [
                [
                    -3.95517,
                    -0.0,
                    -0.0
                ],
                [
                    0.0,
                    -2.38737,
                    0.0
                ],
                [
                    -0.0,
                    0.0,
                    -2.30746
                ]
            ],
            [
                [
                    -1.56312,
                    -0.0,
                    -0.0
                ],
                [
                    0.0,
                    2.52892,
                    0.0
                ],
                [
                    -0.0,
                    0.0,
                    -1.11614
                ]
            ]
        ]
    },
    "band_gap": 0.5701999999999998,
    "is_direct": false,
    "formula": "Ba4Sc2Cu2O9"
}