{
    "mp_id": "mp-17911",
    "nelements": 3,
    "nsites": 24,
    "elements": [
        "Ba",
        "O",
        "Zn"
    ],
    "structure": {
        "@module": "pymatgen.core.structure",
        "@class": "Structure",
        "charge": null,
        "lattice": {
            "matrix": [
                [
                    2.89694636,
                    -5.65936703,
                    -6.17e-06
                ],
                [
                    2.89694636,
                    5.65936703,
                    -6.17e-06
                ],
                [
                    -0.6801114,
                    0.0,
                    12.50527254
                ]
            ],
            "a": 6.357730207629634,
            "b": 6.357730207629634,
            "c": 12.523753144169204,
            "alpha": 91.41797276159518,
            "beta": 91.41797276159518,
            "gamma": 125.78552827667599,
            "volume": 410.0449057897486
        },
        "sites": [
            {
                "species": [
                    {
                        "element": "Ba",
                        "occu": 1
                    }
                ],
                "abc": [
                    0.9707027,
                    0.56197919,
                    0.65279719
                ],
                "xyz": [
                    3.996122411466454,
                    -2.3131163568798754,
                    8.163397317648903
                ],
                "label": "Ba",
                "properties": {}
            },
            {
                "species": [
                    {
                        "element": "Ba",
                        "occu": 1
                    }
                ],
                "abc": [
                    0.56197919,
                    0.9707027,
                    0.15279719
                ],
                "xyz": [
                    4.336178111466454,
                    2.3131163568798754,
                    1.9107610476489014
                ],
                "label": "Ba",
                "properties": {}
            },
            {
                "species": [
                    {
                        "element": "Ba",
                        "occu": 1
                    }
                ],
                "abc": [
                    0.0292973,
                    0.43802081,
                    0.34720281
                ],
                "xyz": [
                    1.1176589085335455,
                    2.3131163568798754,
                    4.341862882351098
                ],
                "label": "Ba",
                "properties": {}
            },
            {
                "species": [
                    {
                        "element": "Ba",
                        "occu": 1
                    }
                ],
                "abc": [
                    0.43802081,
                    0.0292973,
                    0.84720281
                ],
                "xyz": [
                    0.7776032085335456,
                    -2.3131163568798754,
                    10.594499152351098
                ],
                "label": "Ba",
                "properties": {}
            },
            {
                "species": [
                    {
                        "element": "Ba",
                        "occu": 1
                    }
                ],
                "abc": [
                    0.34651521,
                    0.13900996,
                    0.42515132
                ],
                "xyz": [
                    1.117390114462833,
                    -1.1743483704019075,
                    5.316630131650454
                ],
                "label": "Ba",
                "properties": {}
            },
            {
                "species": [
                    {
                        "element": "Ba",
                        "occu": 1
                    }
                ],
                "abc": [
                    0.86099004,
                    0.65348479,
                    0.07484868
                ],
                "xyz": [
                    4.3364469055371675,
                    -1.174348370401908,
                    0.9359937983495461
                ],
                "label": "Ba",
                "properties": {}
            },
            {
                "species": [
                    {
                        "element": "Ba",
                        "occu": 1
                    }
                ],
                "abc": [
                    0.65348479,
                    0.86099004,
                    0.57484868
                ],
                "xyz": [
                    3.9963912055371673,
                    1.174348370401908,
                    7.188630068349546
                ],
                "label": "Ba",
                "properties": {}
            },
            {
                "species": [
                    {
                        "element": "Ba",
                        "occu": 1
                    }
                ],
                "abc": [
                    0.13900996,
                    0.34651521,
                    0.92515132
                ],
                "xyz": [
                    0.7773344144628331,
                    1.1743483704019075,
                    11.569266401650454
                ],
                "label": "Ba",
                "properties": {}
            },
            {
                "species": [
                    {
                        "element": "Zn",
                        "occu": 1
                    }
                ],
                "abc": [
                    0.26728962,
                    0.26961708,
                    0.16471758
                ],
                "xyz": [
                    1.4433636062862,
                    0.013171950387643738,
                    2.059834917314914
                ],
                "label": "Zn",
                "properties": {}
            },
            {
                "species": [
                    {
                        "element": "Zn",
                        "occu": 1
                    }
                ],
                "abc": [
                    0.73271038,
                    0.73038292,
                    0.83528242
                ],
                "xyz": [
                    3.6704177137138005,
                    -0.013171950387643072,
                    10.445425282685086
                ],
                "label": "Zn",
                "properties": {}
            },
            {
                "species": [
                    {
                        "element": "Zn",
                        "occu": 1
                    }
                ],
                "abc": [
                    0.73038292,
                    0.73271038,
                    0.33528242
                ],
                "xyz": [
                    4.0104734137138,
                    0.013171950387643072,
                    4.192789012685086
                ],
                "label": "Zn",
                "properties": {}
            },
            {
                "species": [
                    {
                        "element": "Zn",
                        "occu": 1
                    }
                ],
                "abc": [
                    0.26961708,
                    0.26728962,
                    0.66471758
                ],
                "xyz": [
                    1.1033079062862,
                    -0.013171950387643738,
                    8.312471187314914
                ],
                "label": "Zn",
                "properties": {}
            },
            {
                "species": [
                    {
                        "element": "O",
                        "occu": 1
                    }
                ],
                "abc": [
                    0.86804219,
                    0.67281931,
                    0.46286446
                ],
                "xyz": [
                    4.148993717788295,
                    -1.1048379305736469,
                    5.788236714264473
                ],
                "label": "O",
                "properties": {}
            },
            {
                "species": [
                    {
                        "element": "O",
                        "occu": 1
                    }
                ],
                "abc": [
                    0.32718069,
                    0.13195781,
                    0.03713554
                ],
                "xyz": [
                    1.3048433022117039,
                    -1.1048379305736464,
                    0.4643872157355266
                ],
                "label": "O",
                "properties": {}
            },
            {
                "species": [
                    {
                        "element": "O",
                        "occu": 1
                    }
                ],
                "abc": [
                    0.13195781,
                    0.32718069,
                    0.53713554
                ],
                "xyz": [
                    0.9647876022117039,
                    1.1048379305736464,
                    6.717023485735527
                ],
                "label": "O",
                "properties": {}
            },
            {
                "species": [
                    {
                        "element": "O",
                        "occu": 1
                    }
                ],
                "abc": [
                    0.67281931,
                    0.86804219,
                    0.96286446
                ],
                "xyz": [
                    3.8089380177882957,
                    1.1048379305736469,
                    12.040872984264473
                ],
                "label": "O",
                "properties": {}
            },
            {
                "species": [
                    {
                        "element": "O",
                        "occu": 1
                    }
                ],
                "abc": [
                    0.99791609,
                    0.00208391,
                    0.25
                ],
                "xyz": [
                    2.72691851,
                    -5.635779806905026,
                    3.126311965
                ],
                "label": "O",
                "properties": {}
            },
            {
                "species": [
                    {
                        "element": "O",
                        "occu": 1
                    }
                ],
                "abc": [
                    0.00208391,
                    0.99791609,
                    0.75
                ],
                "xyz": [
                    2.38686281,
                    5.635779806905026,
                    9.378948235
                ],
                "label": "O",
                "properties": {}
            },
            {
                "species": [
                    {
                        "element": "O",
                        "occu": 1
                    }
                ],
                "abc": [
                    0.59010147,
                    0.40989853,
                    0.25
                ],
                "xyz": [
                    2.72691851,
                    -1.019834577345068,
                    3.126311965
                ],
                "label": "O",
                "properties": {}
            },
            {
                "species": [
                    {
                        "element": "O",
                        "occu": 1
                    }
                ],
                "abc": [
                    0.8533218,
                    0.51640389,
                    0.8661921
                ],
                "xyz": [
                    3.378914730044048,
                    -1.9067421116705074,
                    10.831959831287426
                ],
                "label": "O",
                "properties": {}
            },
            {
                "species": [
                    {
                        "element": "O",
                        "occu": 1
                    }
                ],
                "abc": [
                    0.51640389,
                    0.8533218,
                    0.3661921
                ],
                "xyz": [
                    3.718970430044048,
                    1.9067421116705074,
                    4.579323561287427
                ],
                "label": "O",
                "properties": {}
            },
            {
                "species": [
                    {
                        "element": "O",
                        "occu": 1
                    }
                ],
                "abc": [
                    0.1466782,
                    0.48359611,
                    0.1338079
                ],
                "xyz": [
                    1.7348665899559517,
                    1.9067421116705074,
                    1.6733003687125734
                ],
                "label": "O",
                "properties": {}
            },
            {
                "species": [
                    {
                        "element": "O",
                        "occu": 1
                    }
                ],
                "abc": [
                    0.48359611,
                    0.1466782,
                    0.6338079
                ],
                "xyz": [
                    1.3948108899559517,
                    -1.9067421116705074,
                    7.925936638712574
                ],
                "label": "O",
                "properties": {}
            },
            {
                "species": [
                    {
                        "element": "O",
                        "occu": 1
                    }
                ],
                "abc": [
                    0.40989853,
                    0.59010147,
                    0.75
                ],
                "xyz": [
                    2.38686281,
                    1.019834577345068,
                    9.378948235
                ],
                "label": "O",
                "properties": {}
            }
        ]
    },
    "spacegroup": {
        "source": "spglib",
        "symbol": "C2/c",
        "number": 15,
        "point_group": "2/m",
        "crystal_system": "monoclinic",
        "hall": "-C 2yc"
    },
    "dielectric": {
        "epsilon_ionic": [
            [
                16.65407392,
                -0.0,
                0.910895
            ],
            [
                -0.0,
                12.2384188,
                -0.0
            ],
            [
                0.910895,
                -0.0,
                12.43647018
            ]
        ],
        "epsilon_ionic_avg": 13.776320966666667,
        "epsilon_ionic_eig": [
            16.84239525695702,
            12.248148843042982,
            12.2384188
        ],
        "epsilon_electronic": [
            [
                4.24653067,
                0.0,
                0.00626694
            ],
            [
                0.0,
                4.42073178,
                0.0
            ],
            [
                0.00626731,
                0.0,
                4.43119848
            ]
        ],
        "epsilon_electronic_avg": 4.366153643333334,
        "epsilon_electronic_eig": [
            4.246318225162309,
            4.431410924837691,
            4.42073178
        ]
    },
    "phonon": {
        "lowest_freq": -0.06265288678000173,
        "frequency": [
            -0.06265288678000173,
            -0.02617095273471627,
            -0.021003675078362018,
            1.6358728522075088,
            1.6910574930249291,
            1.994936008706253,
            2.183870681764015,
            2.533565922970197,
            2.534921547813779,
            2.637173748974012,
            2.641525430411401,
            2.7711110065818847,
            2.8554904194237296,
            2.9994293020305736,
            3.0771470246366914,
            3.282211151757548,
            3.2947585124584893,
            3.40523528401311,
            3.419167750599022,
            3.6302059403182674,
            3.6321834426092385,
            3.6607086742092823,
            3.6671430914085783,
            3.7117927142975513,
            3.827487849119652,
            3.953156656363396,
            4.033278679010782,
            4.2792426374828745,
            4.437342904273342,
            4.59020173481198,
            4.871282013243598,
            4.9901375583509475,
            5.079401210438796,
            5.094031130592169,
            5.190845540110085,
            5.292574608785528,
            5.387957987714753,
            5.584517540839368,
            6.045802023292268,
            6.126996811059042,
            6.160154124030248,
            6.432698339125027,
            6.71742125235182,
            6.722652023104566,
            6.819599237355455,
            7.394639646465556,
            7.7026986001549655,
            7.9856988835723755,
            7.999047272083504,
            8.006374822383268,
            8.188500560795761,
            8.356396343226583,
            8.462926945436468,
            9.341873045845865,
            9.697809897750655,
            9.718000659771256,
            10.084581744271265,
            10.318190095025706,
            10.479811147260044,
            11.35244241707275,
            12.03319965946339,
            12.089196249282708,
            12.305313763178434,
            12.724616410481293,
            13.155161031776828,
            13.487577813753346,
            13.99514009599974,
            14.190278334361393,
            14.389656431687005,
            14.907374062717356,
            17.792063751599212,
            17.94310559985127
        ]
    },
    "born_effective_charge": {
        "avg_abs_trace": 2.4041759722222222,
        "tensors": [
            [
                [
                    2.58021,
                    -0.04867,
                    0.08561
                ],
                [
                    -0.06687,
                    2.68904,
                    0.09682
                ],
                [
                    0.10015,
                    0.11812,
                    2.85507
                ]
            ],
            [
                [
                    2.58021,
                    0.04867,
                    0.08561
                ],
                [
                    0.06679,
                    2.68907,
                    -0.09677
                ],
                [
                    0.10015,
                    -0.11812,
                    2.85507
                ]
            ],
            [
                [
                    2.58023,
                    -0.04866,
                    0.0856
                ],
                [
                    -0.06679,
                    2.68907,
                    0.09677
                ],
                [
                    0.10017,
                    0.11814,
                    2.85508
                ]
            ],
            [
                [
                    2.58023,
                    0.04866,
                    0.0856
                ],
                [
                    0.06687,
                    2.68904,
                    -0.09682
                ],
                [
                    0.10017,
                    -0.11814,
                    2.85508
                ]
            ],
            [
                [
                    2.53719,
                    -0.0654,
                    -0.0675
                ],
                [
                    -0.03869,
                    2.63813,
                    0.10432
                ],
                [
                    -0.07567,
                    0.15299,
                    2.88956
                ]
            ],
            [
                [
                    2.53721,
                    0.0654,
                    -0.0675
                ],
                [
                    0.03869,
                    2.63813,
                    -0.10432
                ],
                [
                    -0.07563,
                    -0.153,
                    2.88951
                ]
            ],
            [
                [
                    2.53721,
                    -0.0654,
                    -0.0675
                ],
                [
                    -0.03898,
                    2.63773,
                    0.10432
                ],
                [
                    -0.07563,
                    0.153,
                    2.88951
                ]
            ],
            [
                [
                    2.53719,
                    0.0654,
                    -0.0675
                ],
                [
                    0.03898,
                    2.63773,
                    -0.10432
                ],
                [
                    -0.07567,
                    -0.15299,
                    2.88956
                ]
            ],
            [
                [
                    1.73471,
                    -0.11209,
                    -0.05483
                ],
                [
                    -0.07569,
                    1.88558,
                    0.05835
                ],
                [
                    -0.03095,
                    -0.01379,
                    1.82826
                ]
            ],
            [
                [
                    1.73471,
                    -0.11211,
                    -0.05484
                ],
                [
                    -0.07573,
                    1.88563,
                    0.05836
                ],
                [
                    -0.03093,
                    -0.01378,
                    1.82826
                ]
            ],
            [
                [
                    1.73471,
                    0.11211,
                    -0.05484
                ],
                [
                    0.07569,
                    1.88558,
                    -0.05835
                ],
                [
                    -0.03093,
                    0.01378,
                    1.82826
                ]
            ],
            [
                [
                    1.73471,
                    0.11209,
                    -0.05483
                ],
                [
                    0.07573,
                    1.88563,
                    -0.05836
                ],
                [
                    -0.03095,
                    0.01379,
                    1.82826
                ]
            ],
            [
                [
                    -2.08955,
                    0.01483,
                    -0.02149
                ],
                [
                    0.02257,
                    -2.5785,
                    0.01217
                ],
                [
                    0.02366,
                    0.00354,
                    -2.68848
                ]
            ],
            [
                [
                    -2.08954,
                    -0.01485,
                    -0.02148
                ],
                [
                    -0.02257,
                    -2.5785,
                    -0.01217
                ],
                [
                    0.02366,
                    -0.0035,
                    -2.68846
                ]
            ],
            [
                [
                    -2.08954,
                    0.01485,
                    -0.02148
                ],
                [
                    0.02229,
                    -2.57845,
                    0.0121
                ],
                [
                    0.02366,
                    0.0035,
                    -2.68846
                ]
            ],
            [
                [
                    -2.08955,
                    -0.01483,
                    -0.02149
                ],
                [
                    -0.02229,
                    -2.57845,
                    -0.0121
                ],
                [
                    0.02366,
                    -0.00354,
                    -2.68848
                ]
            ],
            [
                [
                    -2.58008,
                    1e-05,
                    0.26107
                ],
                [
                    0.0,
                    -1.99439,
                    0.0
                ],
                [
                    0.13062,
                    0.0,
                    -2.427
                ]
            ],
            [
                [
                    -2.58008,
                    -1e-05,
                    0.26107
                ],
                [
                    0.0,
                    -1.99405,
                    0.0
                ],
                [
                    0.13062,
                    -0.0,
                    -2.427
                ]
            ],
            [
                [
                    -2.34079,
                    1e-05,
                    -0.1877
                ],
                [
                    0.0,
                    -2.12178,
                    0.0
                ],
                [
                    -0.1582,
                    4e-05,
                    -2.47172
                ]
            ],
            [
                [
                    -2.30214,
                    -0.14597,
                    0.02152
                ],
                [
                    -0.10141,
                    -2.57612,
                    0.02405
                ],
                [
                    -0.00344,
                    0.1064,
                    -2.43506
                ]
            ],
            [
                [
                    -2.30214,
                    0.14597,
                    0.02152
                ],
                [
                    0.10129,
                    -2.57618,
                    -0.02404
                ],
                [
                    -0.00344,
                    -0.1064,
                    -2.43506
                ]
            ],
            [
                [
                    -2.30215,
                    -0.14596,
                    0.02154
                ],
                [
                    -0.10129,
                    -2.57618,
                    0.02404
                ],
                [
                    -0.00343,
                    0.1064,
                    -2.43502
                ]
            ],
            [
                [
                    -2.30215,
                    0.14596,
                    0.02154
                ],
                [
                    0.10141,
                    -2.57612,
                    -0.02405
                ],
                [
                    -0.00343,
                    -0.1064,
                    -2.43502
                ]
            ],
            [
                [
                    -2.34079,
                    -1e-05,
                    -0.1877
                ],
                [
                    0.0,
                    -2.12161,
                    0.0
                ],
                [
                    -0.1582,
                    -4e-05,
                    -2.47172
                ]
            ]
        ]
    },
    "band_gap": 3.0757000000000003,
    "is_direct": true,
    "formula": "Ba2ZnO3"
}