{
    "mp_id": "mp-1216623",
    "nelements": 4,
    "nsites": 18,
    "elements": [
        "O",
        "Sb",
        "Tl",
        "W"
    ],
    "structure": {
        "@module": "pymatgen.core.structure",
        "@class": "Structure",
        "charge": null,
        "lattice": {
            "matrix": [
                [
                    -3.62234676,
                    5.13213624,
                    3.69342629
                ],
                [
                    3.62234676,
                    -5.13213624,
                    3.69342629
                ],
                [
                    3.62234676,
                    5.13213624,
                    -3.69342629
                ]
            ],
            "a": 7.287085576227783,
            "b": 7.287085576227783,
            "c": 7.287085576227783,
            "alpha": 120.38450585675089,
            "beta": 90.45746312506131,
            "gamma": 119.0921292762327,
            "volume": 274.64874980558983
        },
        "sites": [
            {
                "species": [
                    {
                        "element": "Tl",
                        "occu": 1
                    }
                ],
                "abc": [
                    0.74846761,
                    0.34491658,
                    0.90355103
                ],
                "xyz": [
                    1.81117338,
                    6.708225851504654,
                    0.7011347838577766
                ],
                "label": "Tl",
                "properties": {}
            },
            {
                "species": [
                    {
                        "element": "Tl",
                        "occu": 1
                    }
                ],
                "abc": [
                    0.44136555,
                    0.84491658,
                    0.09644897
                ],
                "xyz": [
                    1.81117338,
                    -1.5760896115046543,
                    4.394561073857776
                ],
                "label": "Tl",
                "properties": {}
            },
            {
                "species": [
                    {
                        "element": "Sb",
                        "occu": 1
                    }
                ],
                "abc": [
                    0.99353983,
                    0.99353983,
                    0.0
                ],
                "xyz": [
                    0.0,
                    0.0,
                    7.339132256568262
                ],
                "label": "Sb",
                "properties": {}
            },
            {
                "species": [
                    {
                        "element": "Sb",
                        "occu": 1
                    }
                ],
                "abc": [
                    0.99353983,
                    0.49353983,
                    0.5
                ],
                "xyz": [
                    0.0,
                    5.132136240000001,
                    3.6457059665682623
                ],
                "label": "Sb",
                "properties": {}
            },
            {
                "species": [
                    {
                        "element": "W",
                        "occu": 1
                    }
                ],
                "abc": [
                    0.50589891,
                    0.5136819,
                    0.49221701
                ],
                "xyz": [
                    1.81117338,
                    2.4861813899308847,
                    1.947779323314302
                ],
                "label": "W",
                "properties": {}
            },
            {
                "species": [
                    {
                        "element": "W",
                        "occu": 1
                    }
                ],
                "abc": [
                    0.02146489,
                    0.0136819,
                    0.50778299
                ],
                "xyz": [
                    1.8111733800000003,
                    2.6459548500691157,
                    -1.7456469666856982
                ],
                "label": "W",
                "properties": {}
            },
            {
                "species": [
                    {
                        "element": "O",
                        "occu": 1
                    }
                ],
                "abc": [
                    0.68964635,
                    0.7483653,
                    0.44128106
                ],
                "xyz": [
                    1.811173416223468,
                    1.9633608687818667,
                    3.681350965153211
                ],
                "label": "O",
                "properties": {}
            },
            {
                "species": [
                    {
                        "element": "O",
                        "occu": 1
                    }
                ],
                "abc": [
                    0.06194367,
                    0.73401159,
                    0.82793208
                ],
                "xyz": [
                    5.433520140000001,
                    0.7999161040531577,
                    -0.1181040276585974
                ],
                "label": "O",
                "properties": {}
            },
            {
                "species": [
                    {
                        "element": "O",
                        "occu": 1
                    }
                ],
                "abc": [
                    0.05815498,
                    0.74767864,
                    0.43512749
                ],
                "xyz": [
                    4.073876449332774,
                    -1.3055958033742003,
                    1.369175766406158
                ],
                "label": "O",
                "properties": {}
            },
            {
                "species": [
                    {
                        "element": "O",
                        "occu": 1
                    }
                ],
                "abc": [
                    0.67269328,
                    0.73707996,
                    0.80899355
                ],
                "xyz": [
                    3.163686046388555,
                    3.8214239020799687,
                    2.2189355015440495
                ],
                "label": "O",
                "properties": {}
            },
            {
                "species": [
                    {
                        "element": "O",
                        "occu": 1
                    }
                ],
                "abc": [
                    0.05815498,
                    0.12302849,
                    0.81047634
                ],
                "xyz": [
                    3.170820693013986,
                    3.8265353044895596,
                    -2.324246830167552
                ],
                "label": "O",
                "properties": {}
            },
            {
                "species": [
                    {
                        "element": "O",
                        "occu": 1
                    }
                ],
                "abc": [
                    0.67269328,
                    0.36369872,
                    0.43561332
                ],
                "xyz": [
                    0.4586570550412181,
                    3.821429085537572,
                    2.2189317711834975
                ],
                "label": "O",
                "properties": {}
            },
            {
                "species": [
                    {
                        "element": "O",
                        "occu": 1
                    }
                ],
                "abc": [
                    0.30708324,
                    0.2483653,
                    0.55871894
                ],
                "xyz": [
                    1.8111770023467604,
                    3.168770187760531,
                    -0.012078981338816241
                ],
                "label": "O",
                "properties": {}
            },
            {
                "species": [
                    {
                        "element": "O",
                        "occu": 1
                    }
                ],
                "abc": [
                    0.90607951,
                    0.23401159,
                    0.17206792
                ],
                "xyz": [
                    -1.8111733799999996,
                    4.332220135946842,
                    3.575322262341402
                ],
                "label": "O",
                "properties": {}
            },
            {
                "species": [
                    {
                        "element": "O",
                        "occu": 1
                    }
                ],
                "abc": [
                    0.9280854,
                    0.23707996,
                    0.56438668
                ],
                "xyz": [
                    -0.45865705504121745,
                    6.44284339446243,
                    2.218931771183497
                ],
                "label": "O",
                "properties": {}
            },
            {
                "species": [
                    {
                        "element": "O",
                        "occu": 1
                    }
                ],
                "abc": [
                    0.31255115,
                    0.24767864,
                    0.18952366
                ],
                "xyz": [
                    0.45152968933277404,
                    1.3055958033742008,
                    1.3691757664061575
                ],
                "label": "O",
                "properties": {}
            },
            {
                "species": [
                    {
                        "element": "O",
                        "occu": 1
                    }
                ],
                "abc": [
                    0.9280854,
                    0.86369872,
                    0.19100645
                ],
                "xyz": [
                    0.4586607136114458,
                    1.310712337920031,
                    5.912354330822944
                ],
                "label": "O",
                "properties": {}
            },
            {
                "species": [
                    {
                        "element": "O",
                        "occu": 1
                    }
                ],
                "abc": [
                    0.31255115,
                    0.62302849,
                    0.56487251
                ],
                "xyz": [
                    3.1708206930139866,
                    1.305590671237961,
                    1.3691794598324476
                ],
                "label": "O",
                "properties": {}
            }
        ]
    },
    "spacegroup": {
        "source": "spglib",
        "symbol": "Ima2",
        "number": 46,
        "point_group": "mm2",
        "crystal_system": "orthorhombic",
        "hall": "I 2 -2a"
    },
    "dielectric": {
        "epsilon_ionic": [
            [
                27.69269558,
                8e-08,
                0.00023707
            ],
            [
                8e-08,
                20.51301808,
                0.00096159
            ],
            [
                0.00023707,
                0.00096159,
                18.08467777
            ]
        ],
        "epsilon_ionic_avg": 22.096797143333333,
        "epsilon_ionic_eig": [
            27.692695585849517,
            18.084677383373883,
            20.513018460776596
        ],
        "epsilon_electronic": [
            [
                4.80406349,
                0.0,
                0.0
            ],
            [
                0.0,
                4.75325133,
                0.0
            ],
            [
                0.0,
                0.0,
                5.01494362
            ]
        ],
        "epsilon_electronic_avg": 4.85741948,
        "epsilon_electronic_eig": [
            4.80406349,
            4.75325133,
            5.01494362
        ]
    },
    "phonon": {
        "lowest_freq": -0.1459736145874233,
        "frequency": [
            -0.1459736145874233,
            -0.056881072086480446,
            -0.04809299409482947,
            0.7593457521991296,
            0.8503230078640353,
            1.047983926074025,
            1.263749864331399,
            1.2695321156215202,
            1.3593102437631133,
            2.8074992696985452,
            3.188937104244659,
            3.300368649141145,
            4.235169933622916,
            4.432356148546761,
            5.202488704913556,
            5.6076873715097175,
            5.701424323468269,
            6.0792110518614475,
            6.096288009279178,
            6.317783632752766,
            6.672219485545264,
            6.799316485088796,
            6.863001914838792,
            7.858107358469529,
            8.071425466105556,
            8.493598255148445,
            9.057942895614753,
            9.558206429773323,
            9.80499693965397,
            10.106779792768226,
            10.548125872509573,
            10.713963287429932,
            11.716586252342859,
            11.955997543584992,
            12.247158680414776,
            12.821935624202679,
            12.829866999224999,
            13.012682881370267,
            13.090178480237523,
            13.270846928855251,
            13.678391993487303,
            14.611024850275887,
            18.204069612038825,
            18.59665174327945,
            19.336229423718688,
            19.388982516811332,
            20.058203450879997,
            20.463681620185675,
            21.1268629476373,
            21.312125140776732,
            21.941298366187677,
            24.65397960855678,
            26.20802752866014,
            27.51362376182549
        ]
    },
    "born_effective_charge": {
        "avg_abs_trace": 3.4470890740740745,
        "tensors": [
            [
                [
                    2.11,
                    9e-05,
                    8e-05
                ],
                [
                    -0.0,
                    1.57789,
                    -0.41673
                ],
                [
                    -0.0,
                    -0.30013,
                    1.55868
                ]
            ],
            [
                [
                    2.11,
                    -9e-05,
                    8e-05
                ],
                [
                    -0.0,
                    1.57778,
                    0.41763
                ],
                [
                    -0.0,
                    0.30013,
                    1.55868
                ]
            ],
            [
                [
                    5.79921,
                    1.56494,
                    -7e-05
                ],
                [
                    1.11417,
                    6.60131,
                    -0.00017
                ],
                [
                    -0.0,
                    -0.0,
                    5.32726
                ]
            ],
            [
                [
                    5.79921,
                    -1.56494,
                    -7e-05
                ],
                [
                    -1.11417,
                    6.60131,
                    -0.00017
                ],
                [
                    -0.0,
                    -0.0,
                    5.32726
                ]
            ],
            [
                [
                    7.34494,
                    0.00024,
                    8e-05
                ],
                [
                    0.0,
                    6.90616,
                    1.22165
                ],
                [
                    -0.0,
                    1.15616,
                    9.31019
                ]
            ],
            [
                [
                    7.34494,
                    -0.00024,
                    8e-05
                ],
                [
                    0.0,
                    6.90642,
                    -1.22193
                ],
                [
                    -0.0,
                    -1.15616,
                    9.31019
                ]
            ],
            [
                [
                    -0.84928,
                    -0.00012,
                    0.00014
                ],
                [
                    -0.0,
                    -0.99678,
                    0.18068
                ],
                [
                    0.0,
                    0.28214,
                    -6.1824
                ]
            ],
            [
                [
                    -2.91367,
                    -4e-05,
                    -3e-05
                ],
                [
                    -0.0,
                    -2.33474,
                    0.06777
                ],
                [
                    0.0,
                    -0.05916,
                    -1.55076
                ]
            ],
            [
                [
                    -2.6689,
                    1.3912,
                    -0.7844
                ],
                [
                    1.48876,
                    -2.85003,
                    1.15527
                ],
                [
                    -1.04169,
                    1.23701,
                    -2.24817
                ]
            ],
            [
                [
                    -3.07683,
                    -1.51219,
                    -0.09367
                ],
                [
                    -1.46525,
                    -3.02708,
                    -0.77183
                ],
                [
                    -0.61667,
                    -1.049,
                    -1.98331
                ]
            ],
            [
                [
                    -2.66893,
                    -1.39087,
                    0.78457
                ],
                [
                    -1.48876,
                    -2.85003,
                    1.15527
                ],
                [
                    1.04169,
                    1.23701,
                    -2.24817
                ]
            ],
            [
                [
                    -3.07653,
                    1.51224,
                    0.0933
                ],
                [
                    1.46525,
                    -3.02708,
                    -0.77183
                ],
                [
                    0.61667,
                    -1.049,
                    -1.98331
                ]
            ],
            [
                [
                    -0.84928,
                    0.00012,
                    0.00014
                ],
                [
                    -0.0,
                    -0.99684,
                    -0.18078
                ],
                [
                    -0.0,
                    -0.28214,
                    -6.1824
                ]
            ],
            [
                [
                    -2.91367,
                    4e-05,
                    -3e-05
                ],
                [
                    0.0,
                    -2.3343,
                    -0.068
                ],
                [
                    -0.0,
                    0.05916,
                    -1.55076
                ]
            ],
            [
                [
                    -3.07683,
                    1.51219,
                    -0.09367
                ],
                [
                    1.46509,
                    -3.02685,
                    0.77166
                ],
                [
                    -0.61667,
                    1.049,
                    -1.98331
                ]
            ],
            [
                [
                    -2.6689,
                    -1.3912,
                    -0.7844
                ],
                [
                    -1.48862,
                    -2.85014,
                    -1.15508
                ],
                [
                    -1.04169,
                    -1.23701,
                    -2.24817
                ]
            ],
            [
                [
                    -3.07653,
                    -1.51224,
                    0.0933
                ],
                [
                    -1.46509,
                    -3.02685,
                    0.77166
                ],
                [
                    0.61667,
                    1.049,
                    -1.98331
                ]
            ],
            [
                [
                    -2.66893,
                    1.39087,
                    0.78457
                ],
                [
                    1.48862,
                    -2.85014,
                    -1.15508
                ],
                [
                    1.04169,
                    -1.23701,
                    -2.24817
                ]
            ]
        ]
    },
    "band_gap": 2.7606999999999995,
    "is_direct": false,
    "formula": "TlSbWO6"
}