{
    "mp_id": "mp-1222352",
    "nelements": 4,
    "nsites": 14,
    "elements": [
        "Li",
        "O",
        "Rh",
        "Ti"
    ],
    "structure": {
        "@module": "pymatgen.core.structure",
        "@class": "Structure",
        "charge": null,
        "lattice": {
            "matrix": [
                [
                    -2.98373097,
                    3.03987134,
                    4.11186518
                ],
                [
                    2.98373097,
                    -3.03987134,
                    4.11186518
                ],
                [
                    2.98373097,
                    3.03987134,
                    -4.11186518
                ]
            ],
            "a": 5.9203803529492065,
            "b": 5.9203803529492065,
            "c": 5.9203803529492065,
            "alpha": 119.4731684385204,
            "beta": 118.21101202980883,
            "gamma": 92.02089400242349,
            "volume": 149.18107173799095
        },
        "sites": [
            {
                "species": [
                    {
                        "element": "Li",
                        "occu": 1
                    }
                ],
                "abc": [
                    0.62161618,
                    0.37161618,
                    0.25
                ],
                "xyz": [
                    0.0,
                    1.5199356699999997,
                    3.0560712617332246
                ],
                "label": "Li",
                "properties": {}
            },
            {
                "species": [
                    {
                        "element": "Li",
                        "occu": 1
                    }
                ],
                "abc": [
                    0.37838382,
                    0.62838382,
                    0.75
                ],
                "xyz": [
                    2.98373097,
                    1.51993567,
                    1.055793918266775
                ],
                "label": "Li",
                "properties": {}
            },
            {
                "species": [
                    {
                        "element": "Ti",
                        "occu": 1
                    }
                ],
                "abc": [
                    0.0,
                    0.0,
                    0.5
                ],
                "xyz": [
                    1.491865485,
                    1.51993567,
                    -2.05593259
                ],
                "label": "Ti",
                "properties": {}
            },
            {
                "species": [
                    {
                        "element": "Ti",
                        "occu": 1
                    }
                ],
                "abc": [
                    0.0,
                    0.5,
                    0.0
                ],
                "xyz": [
                    1.491865485,
                    -1.51993567,
                    2.05593259
                ],
                "label": "Ti",
                "properties": {}
            },
            {
                "species": [
                    {
                        "element": "Rh",
                        "occu": 1
                    }
                ],
                "abc": [
                    0.0,
                    0.0,
                    0.0
                ],
                "xyz": [
                    0.0,
                    0.0,
                    0.0
                ],
                "label": "Rh",
                "properties": {}
            },
            {
                "species": [
                    {
                        "element": "Rh",
                        "occu": 1
                    }
                ],
                "abc": [
                    0.5,
                    0.0,
                    0.5
                ],
                "xyz": [
                    0.0,
                    3.03987134,
                    0.0
                ],
                "label": "Rh",
                "properties": {}
            },
            {
                "species": [
                    {
                        "element": "O",
                        "occu": 1
                    }
                ],
                "abc": [
                    0.77878025,
                    0.24821505,
                    0.5305662
                ],
                "xyz": [
                    2.98373097029625e-06,
                    3.2257029308340757,
                    2.041249530628737
                ],
                "label": "O",
                "properties": {}
            },
            {
                "species": [
                    {
                        "element": "O",
                        "occu": 1
                    }
                ],
                "abc": [
                    0.21764885,
                    0.24821505,
                    0.9694338
                ],
                "xyz": [
                    2.98373097,
                    2.854036709294584,
                    -2.070611537506082
                ],
                "label": "O",
                "properties": {}
            },
            {
                "species": [
                    {
                        "element": "O",
                        "occu": 1
                    }
                ],
                "abc": [
                    0.75925792,
                    0.23648404,
                    0.97722711
                ],
                "xyz": [
                    1.3559661767675326,
                    4.559810019472627,
                    0.07613056702792331
                ],
                "label": "O",
                "properties": {}
            },
            {
                "species": [
                    {
                        "element": "O",
                        "occu": 1
                    }
                ],
                "abc": [
                    0.75925792,
                    0.78203081,
                    0.52277289
                ],
                "xyz": [
                    1.6277618393388065,
                    1.5199356700000006,
                    4.18799981777445
                ],
                "label": "O",
                "properties": {}
            },
            {
                "species": [
                    {
                        "element": "O",
                        "occu": 1
                    }
                ],
                "abc": [
                    0.22121975,
                    0.75178495,
                    0.4694338
                ],
                "xyz": [
                    2.98372798626903,
                    -0.18583159083407597,
                    2.0706156493712617
                ],
                "label": "O",
                "properties": {}
            },
            {
                "species": [
                    {
                        "element": "O",
                        "occu": 1
                    }
                ],
                "abc": [
                    0.78235115,
                    0.75178495,
                    0.0305662
                ],
                "xyz": [
                    1.3877787807814457e-17,
                    0.18583463070541587,
                    6.1824767175060815
                ],
                "label": "O",
                "properties": {}
            },
            {
                "species": [
                    {
                        "element": "O",
                        "occu": 1
                    }
                ],
                "abc": [
                    0.24074208,
                    0.76351596,
                    0.02277289
                ],
                "xyz": [
                    1.627764793232467,
                    -1.5199386794726268,
                    4.035734612972076
                ],
                "label": "O",
                "properties": {}
            },
            {
                "species": [
                    {
                        "element": "O",
                        "occu": 1
                    }
                ],
                "abc": [
                    0.24074208,
                    0.21796919,
                    0.47722711
                ],
                "xyz": [
                    1.3559691306611934,
                    1.51993567,
                    -0.07613463777445117
                ],
                "label": "O",
                "properties": {}
            }
        ]
    },
    "spacegroup": {
        "source": "spglib",
        "symbol": "Imma",
        "number": 74,
        "point_group": "mmm",
        "crystal_system": "orthorhombic",
        "hall": "-I 2b 2"
    },
    "dielectric": {
        "epsilon_ionic": [
            [
                27.83684294,
                -0.0,
                -1e-08
            ],
            [
                -0.0,
                10.74494947,
                1e-08
            ],
            [
                -1e-08,
                1e-08,
                11.23027963
            ]
        ],
        "epsilon_ionic_avg": 16.604024013333333,
        "epsilon_ionic_eig": [
            27.836842940000004,
            11.230279629999997,
            10.74494947
        ],
        "epsilon_electronic": [
            [
                5.63404085,
                0.0,
                0.0
            ],
            [
                0.0,
                5.80886442,
                0.0
            ],
            [
                0.0,
                0.0,
                5.74298745
            ]
        ],
        "epsilon_electronic_avg": 5.728630906666667,
        "epsilon_electronic_eig": [
            5.63404085,
            5.80886442,
            5.74298745
        ]
    },
    "phonon": {
        "lowest_freq": -0.05045878815517289,
        "frequency": [
            -0.05045878815517289,
            -0.0322834938859364,
            -0.028811659207385015,
            3.270865871475424,
            3.4830240057029935,
            3.7614092668549954,
            4.7241419377717575,
            4.903417565252048,
            5.66790875848675,
            6.8275266148082325,
            8.302433566544664,
            10.587188353923862,
            10.630133494977263,
            10.800118244552584,
            11.05853382052939,
            11.304708186051396,
            11.503244815232335,
            11.911068297125086,
            12.426593769766747,
            12.462739945733597,
            13.293590717063436,
            13.677319144558838,
            13.696947175098684,
            13.742804687489722,
            13.831358607350833,
            13.943399291655027,
            14.186121670041445,
            14.438612327855749,
            14.476307815662869,
            14.524447909113697,
            14.759785102367468,
            14.852255702570089,
            15.061702025456867,
            15.298313951691343,
            16.673198243910104,
            16.74479218859639,
            17.29290793208703,
            17.692089625178454,
            17.695539634241115,
            17.736301567791326,
            18.268327143452733,
            18.670347431413028
        ]
    },
    "born_effective_charge": {
        "avg_abs_trace": 2.3863314285714288,
        "tensors": [
            [
                [
                    1.21048,
                    0.0,
                    -1e-05
                ],
                [
                    -0.0,
                    1.18357,
                    -3e-05
                ],
                [
                    -0.0,
                    -0.0,
                    1.20066
                ]
            ],
            [
                [
                    1.21048,
                    0.0,
                    1e-05
                ],
                [
                    -0.0,
                    1.18357,
                    3e-05
                ],
                [
                    -0.0,
                    -0.0,
                    1.20068
                ]
            ],
            [
                [
                    6.80148,
                    0.0,
                    -2.7197
                ],
                [
                    -0.0,
                    3.73378,
                    -0.0
                ],
                [
                    -2.75518,
                    -0.0,
                    5.65842
                ]
            ],
            [
                [
                    6.80148,
                    0.0,
                    2.7197
                ],
                [
                    -0.0,
                    3.73378,
                    -0.0
                ],
                [
                    2.75518,
                    -0.0,
                    5.65842
                ]
            ],
            [
                [
                    1.18027,
                    0.0,
                    -0.0
                ],
                [
                    -0.0,
                    2.8872,
                    -0.72721
                ],
                [
                    -0.0,
                    -1.27953,
                    1.20061
                ]
            ],
            [
                [
                    1.18027,
                    0.0,
                    -0.0
                ],
                [
                    -0.0,
                    2.8872,
                    0.72721
                ],
                [
                    -0.0,
                    1.27953,
                    1.20061
                ]
            ],
            [
                [
                    -2.84345,
                    0.00011,
                    0.0
                ],
                [
                    -0.0,
                    -1.66487,
                    -0.70628
                ],
                [
                    -0.0,
                    -0.4069,
                    -2.07152
                ]
            ],
            [
                [
                    -2.84345,
                    -0.00011,
                    0.0
                ],
                [
                    -0.0,
                    -1.66511,
                    0.70681
                ],
                [
                    -0.0,
                    0.4069,
                    -2.07152
                ]
            ],
            [
                [
                    -1.7526,
                    0.0,
                    -0.59109
                ],
                [
                    -0.00027,
                    -2.23728,
                    0.00013
                ],
                [
                    -0.76122,
                    0.0,
                    -1.95851
                ]
            ],
            [
                [
                    -1.75274,
                    -0.0,
                    0.59124
                ],
                [
                    0.00027,
                    -2.23728,
                    0.00013
                ],
                [
                    0.76122,
                    -0.0,
                    -1.95851
                ]
            ],
            [
                [
                    -2.84345,
                    -0.00011,
                    -0.0
                ],
                [
                    -0.0,
                    -1.66511,
                    -0.70681
                ],
                [
                    -0.0,
                    -0.40698,
                    -2.07159
                ]
            ],
            [
                [
                    -2.84345,
                    0.00011,
                    -0.0
                ],
                [
                    -0.0,
                    -1.66487,
                    0.70628
                ],
                [
                    -0.0,
                    0.40698,
                    -2.07159
                ]
            ],
            [
                [
                    -1.75274,
                    0.0,
                    -0.59124
                ],
                [
                    0.00027,
                    -2.23728,
                    -0.00013
                ],
                [
                    -0.76084,
                    -0.0,
                    -1.95808
                ]
            ],
            [
                [
                    -1.7526,
                    -0.0,
                    0.59109
                ],
                [
                    -0.00027,
                    -2.23728,
                    -0.00013
                ],
                [
                    0.76084,
                    -0.0,
                    -1.95808
                ]
            ]
        ]
    },
    "band_gap": 1.6059000000000005,
    "is_direct": true,
    "formula": "LiTiRhO4"
}