{
    "mp_id": "mp-1193109",
    "nelements": 4,
    "nsites": 28,
    "elements": [
        "As",
        "Ca",
        "Na",
        "O"
    ],
    "structure": {
        "@module": "pymatgen.core.structure",
        "@class": "Structure",
        "charge": null,
        "lattice": {
            "matrix": [
                [
                    11.45713725,
                    0.0,
                    0.0
                ],
                [
                    0.0,
                    6.61204711,
                    0.0
                ],
                [
                    0.0,
                    0.0,
                    5.2128198
                ]
            ],
            "a": 11.45713725,
            "b": 6.61204711,
            "c": 5.2128198,
            "alpha": 90.0,
            "beta": 90.0,
            "gamma": 90.0,
            "volume": 394.897848093732
        },
        "sites": [
            {
                "species": [
                    {
                        "element": "Na",
                        "occu": 1
                    }
                ],
                "abc": [
                    0.5,
                    0.0,
                    0.0
                ],
                "xyz": [
                    5.728568625,
                    0.0,
                    0.0
                ],
                "label": "Na",
                "properties": {}
            },
            {
                "species": [
                    {
                        "element": "Na",
                        "occu": 1
                    }
                ],
                "abc": [
                    0.0,
                    0.5,
                    0.5
                ],
                "xyz": [
                    0.0,
                    3.306023555,
                    2.6064099
                ],
                "label": "Na",
                "properties": {}
            },
            {
                "species": [
                    {
                        "element": "Na",
                        "occu": 1
                    }
                ],
                "abc": [
                    0.5,
                    0.5,
                    0.0
                ],
                "xyz": [
                    5.728568625,
                    3.306023555,
                    0.0
                ],
                "label": "Na",
                "properties": {}
            },
            {
                "species": [
                    {
                        "element": "Na",
                        "occu": 1
                    }
                ],
                "abc": [
                    0.0,
                    0.0,
                    0.5
                ],
                "xyz": [
                    0.0,
                    0.0,
                    2.6064099
                ],
                "label": "Na",
                "properties": {}
            },
            {
                "species": [
                    {
                        "element": "Ca",
                        "occu": 1
                    }
                ],
                "abc": [
                    0.27965263,
                    0.75,
                    0.50536313
                ],
                "xyz": [
                    3.204018564233468,
                    4.9590353325,
                    2.634366930253974
                ],
                "label": "Ca",
                "properties": {}
            },
            {
                "species": [
                    {
                        "element": "Ca",
                        "occu": 1
                    }
                ],
                "abc": [
                    0.77965263,
                    0.75,
                    0.99463687
                ],
                "xyz": [
                    8.932587189233468,
                    4.9590353325,
                    5.184862769746026
                ],
                "label": "Ca",
                "properties": {}
            },
            {
                "species": [
                    {
                        "element": "Ca",
                        "occu": 1
                    }
                ],
                "abc": [
                    0.72034737,
                    0.25,
                    0.49463687
                ],
                "xyz": [
                    8.253118685766534,
                    1.6530117775,
                    2.5784528697460263
                ],
                "label": "Ca",
                "properties": {}
            },
            {
                "species": [
                    {
                        "element": "Ca",
                        "occu": 1
                    }
                ],
                "abc": [
                    0.22034737,
                    0.25,
                    0.00536313
                ],
                "xyz": [
                    2.5245500607665323,
                    1.6530117775,
                    0.027957030253974
                ],
                "label": "Ca",
                "properties": {}
            },
            {
                "species": [
                    {
                        "element": "As",
                        "occu": 1
                    }
                ],
                "abc": [
                    0.59662024,
                    0.75,
                    0.43179074
                ],
                "xyz": [
                    6.835559975807941,
                    4.9590353325,
                    2.250847318928652
                ],
                "label": "As",
                "properties": {}
            },
            {
                "species": [
                    {
                        "element": "As",
                        "occu": 1
                    }
                ],
                "abc": [
                    0.09662024,
                    0.75,
                    0.06820926
                ],
                "xyz": [
                    1.10699135080794,
                    4.9590353325,
                    0.35556258107134797
                ],
                "label": "As",
                "properties": {}
            },
            {
                "species": [
                    {
                        "element": "As",
                        "occu": 1
                    }
                ],
                "abc": [
                    0.40337976,
                    0.25,
                    0.56820926
                ],
                "xyz": [
                    4.6215772741920595,
                    1.6530117775,
                    2.9619724810713484
                ],
                "label": "As",
                "properties": {}
            },
            {
                "species": [
                    {
                        "element": "As",
                        "occu": 1
                    }
                ],
                "abc": [
                    0.90337976,
                    0.25,
                    0.93179074
                ],
                "xyz": [
                    10.35014589919206,
                    1.6530117775,
                    4.857257218928652
                ],
                "label": "As",
                "properties": {}
            },
            {
                "species": [
                    {
                        "element": "O",
                        "occu": 1
                    }
                ],
                "abc": [
                    0.45803258,
                    0.75,
                    0.30968223
                ],
                "xyz": [
                    5.247742134031606,
                    4.9590353325,
                    1.614317660252154
                ],
                "label": "O",
                "properties": {}
            },
            {
                "species": [
                    {
                        "element": "O",
                        "occu": 1
                    }
                ],
                "abc": [
                    0.95803258,
                    0.75,
                    0.19031777
                ],
                "xyz": [
                    10.976310759031605,
                    4.9590353325,
                    0.992092239747846
                ],
                "label": "O",
                "properties": {}
            },
            {
                "species": [
                    {
                        "element": "O",
                        "occu": 1
                    }
                ],
                "abc": [
                    0.54196742,
                    0.25,
                    0.69031777
                ],
                "xyz": [
                    6.209395115968395,
                    1.6530117775,
                    3.5985021397478465
                ],
                "label": "O",
                "properties": {}
            },
            {
                "species": [
                    {
                        "element": "O",
                        "occu": 1
                    }
                ],
                "abc": [
                    0.04196742,
                    0.25,
                    0.80968223
                ],
                "xyz": [
                    0.480826490968395,
                    1.6530117775,
                    4.220727560252154
                ],
                "label": "O",
                "properties": {}
            },
            {
                "species": [
                    {
                        "element": "O",
                        "occu": 1
                    }
                ],
                "abc": [
                    0.60214194,
                    0.75,
                    0.75788977
                ],
                "xyz": [
                    6.898822850561265,
                    4.9590353325,
                    3.950742799273446
                ],
                "label": "O",
                "properties": {}
            },
            {
                "species": [
                    {
                        "element": "O",
                        "occu": 1
                    }
                ],
                "abc": [
                    0.10214194,
                    0.75,
                    0.74211023
                ],
                "xyz": [
                    1.1702542255612651,
                    4.9590353325,
                    3.868486900726554
                ],
                "label": "O",
                "properties": {}
            },
            {
                "species": [
                    {
                        "element": "O",
                        "occu": 1
                    }
                ],
                "abc": [
                    0.39785806,
                    0.25,
                    0.24211023
                ],
                "xyz": [
                    4.558314399438736,
                    1.6530117775,
                    1.262077000726554
                ],
                "label": "O",
                "properties": {}
            },
            {
                "species": [
                    {
                        "element": "O",
                        "occu": 1
                    }
                ],
                "abc": [
                    0.89785806,
                    0.25,
                    0.25788977
                ],
                "xyz": [
                    10.286883024438735,
                    1.6530117775,
                    1.344332899273446
                ],
                "label": "O",
                "properties": {}
            },
            {
                "species": [
                    {
                        "element": "O",
                        "occu": 1
                    }
                ],
                "abc": [
                    0.66772919,
                    0.54757898,
                    0.29186523
                ],
                "xyz": [
                    7.650264975661328,
                    3.620618012205748,
                    1.5214408498755538
                ],
                "label": "O",
                "properties": {}
            },
            {
                "species": [
                    {
                        "element": "O",
                        "occu": 1
                    }
                ],
                "abc": [
                    0.16772919,
                    0.95242102,
                    0.20813477
                ],
                "xyz": [
                    1.9216963506613276,
                    6.297452652794251,
                    1.084969050124446
                ],
                "label": "O",
                "properties": {}
            },
            {
                "species": [
                    {
                        "element": "O",
                        "occu": 1
                    }
                ],
                "abc": [
                    0.33227081,
                    0.04757898,
                    0.70813477
                ],
                "xyz": [
                    3.806872274338673,
                    0.3145944572057478,
                    3.691378950124446
                ],
                "label": "O",
                "properties": {}
            },
            {
                "species": [
                    {
                        "element": "O",
                        "occu": 1
                    }
                ],
                "abc": [
                    0.83227081,
                    0.45242102,
                    0.79186523
                ],
                "xyz": [
                    9.535440899338674,
                    2.9914290977942524,
                    4.127850749875554
                ],
                "label": "O",
                "properties": {}
            },
            {
                "species": [
                    {
                        "element": "O",
                        "occu": 1
                    }
                ],
                "abc": [
                    0.33227081,
                    0.45242102,
                    0.70813477
                ],
                "xyz": [
                    3.806872274338673,
                    2.9914290977942524,
                    3.691378950124446
                ],
                "label": "O",
                "properties": {}
            },
            {
                "species": [
                    {
                        "element": "O",
                        "occu": 1
                    }
                ],
                "abc": [
                    0.83227081,
                    0.04757898,
                    0.79186523
                ],
                "xyz": [
                    9.535440899338674,
                    0.3145944572057478,
                    4.127850749875554
                ],
                "label": "O",
                "properties": {}
            },
            {
                "species": [
                    {
                        "element": "O",
                        "occu": 1
                    }
                ],
                "abc": [
                    0.66772919,
                    0.95242102,
                    0.29186523
                ],
                "xyz": [
                    7.650264975661328,
                    6.297452652794251,
                    1.5214408498755538
                ],
                "label": "O",
                "properties": {}
            },
            {
                "species": [
                    {
                        "element": "O",
                        "occu": 1
                    }
                ],
                "abc": [
                    0.16772919,
                    0.54757898,
                    0.20813477
                ],
                "xyz": [
                    1.9216963506613276,
                    3.620618012205748,
                    1.084969050124446
                ],
                "label": "O",
                "properties": {}
            }
        ]
    },
    "spacegroup": {
        "source": "spglib",
        "symbol": "Pnma",
        "number": 62,
        "point_group": "mmm",
        "crystal_system": "orthorhombic",
        "hall": "-P 2ac 2n"
    },
    "dielectric": {
        "epsilon_ionic": [
            [
                4.19700045,
                1.1e-07,
                -1e-08
            ],
            [
                1.1e-07,
                3.81283297,
                -1.9e-07
            ],
            [
                -1e-08,
                -1.9e-07,
                3.2523002
            ]
        ],
        "epsilon_ionic_avg": 3.7540445400000007,
        "epsilon_ionic_eig": [
            4.197000450000032,
            3.8128329700000343,
            3.2523001999999352
        ],
        "epsilon_electronic": [
            [
                2.88375825,
                0.0,
                0.0
            ],
            [
                0.0,
                2.80848328,
                -0.0
            ],
            [
                0.0,
                0.0,
                2.8279029
            ]
        ],
        "epsilon_electronic_avg": 2.8400481433333336,
        "epsilon_electronic_eig": [
            2.88375825,
            2.80848328,
            2.8279029
        ]
    },
    "phonon": {
        "lowest_freq": -0.0605189337216639,
        "frequency": [
            -0.0605189337216639,
            -0.029193720703734168,
            -0.026977513367362264,
            2.423499112836967,
            2.701064495201972,
            2.7163120814329975,
            2.9344172768227312,
            3.3065478151127676,
            3.483387009349259,
            3.5481597389093427,
            3.741428493761308,
            3.9056085163894623,
            4.004972640951608,
            4.179666435474431,
            4.193903992995096,
            4.213817142526541,
            4.5268944585333735,
            4.668020985408464,
            4.850558979121343,
            4.972695786012084,
            5.154503723338272,
            5.216968595370594,
            5.548569268589128,
            5.593480323753394,
            5.658017480238919,
            5.717835550434262,
            5.871276562489591,
            5.894076302414667,
            5.904442571729786,
            6.039452243074662,
            6.066674067756693,
            6.673501285389008,
            6.681944145345954,
            6.967682184343491,
            7.17066669681789,
            7.372876614501214,
            7.462858259146339,
            7.490239655249913,
            7.666992247141058,
            7.8771432394176975,
            8.0201602162361,
            8.145486162552833,
            8.208265684054384,
            8.226112803052649,
            8.36496136072993,
            8.729180278220054,
            8.743400712107185,
            8.836432089861486,
            9.807278581965871,
            10.08002383810012,
            10.26214270021714,
            10.28035153531062,
            10.556633074463308,
            10.574713506809669,
            10.617795813692663,
            10.810014602123305,
            10.945147600602857,
            11.441611242351971,
            12.130788737463519,
            12.150296934531584,
            12.203516739786627,
            12.217000425821306,
            12.529507440992672,
            13.087838979325065,
            13.185026580064171,
            13.211739019272574,
            13.5783730068046,
            14.151706148361923,
            22.44494281764018,
            22.506594081854782,
            22.78514133187287,
            22.875425505598937,
            23.33035875038681,
            23.504578418883817,
            23.51589197346166,
            23.760656105293215,
            24.056960698413032,
            24.101261025187302,
            24.22525360251998,
            24.311834898958146,
            24.33225827810541,
            24.643407081709817,
            24.718271930417217,
            25.94996874867382
        ]
    },
    "born_effective_charge": {
        "avg_abs_trace": 1.8649976190476194,
        "tensors": [
            [
                [
                    0.92099,
                    -0.20887,
                    0.05288
                ],
                [
                    -0.14682,
                    0.97906,
                    -0.08074
                ],
                [
                    -0.02623,
                    0.04256,
                    1.22556
                ]
            ],
            [
                [
                    0.92099,
                    0.20887,
                    -0.05288
                ],
                [
                    0.14682,
                    0.97906,
                    -0.08074
                ],
                [
                    0.02623,
                    0.04256,
                    1.22556
                ]
            ],
            [
                [
                    0.92099,
                    0.20887,
                    0.05288
                ],
                [
                    0.14682,
                    0.97906,
                    0.08074
                ],
                [
                    -0.02623,
                    -0.04256,
                    1.22556
                ]
            ],
            [
                [
                    0.92099,
                    -0.20887,
                    -0.05288
                ],
                [
                    -0.14682,
                    0.97906,
                    0.08074
                ],
                [
                    0.02623,
                    -0.04256,
                    1.22556
                ]
            ],
            [
                [
                    2.69063,
                    0.0,
                    0.01782
                ],
                [
                    0.00014,
                    2.4689,
                    -0.00019
                ],
                [
                    -0.07653,
                    0.0,
                    2.09834
                ]
            ],
            [
                [
                    2.69063,
                    0.0,
                    -0.01782
                ],
                [
                    0.00014,
                    2.4689,
                    0.00019
                ],
                [
                    0.07589,
                    0.0,
                    2.09743
                ]
            ],
            [
                [
                    2.69054,
                    0.0,
                    0.01802
                ],
                [
                    -0.00014,
                    2.4689,
                    0.00019
                ],
                [
                    -0.07589,
                    0.0,
                    2.09743
                ]
            ],
            [
                [
                    2.69054,
                    0.0,
                    -0.01802
                ],
                [
                    -0.00014,
                    2.4689,
                    -0.00019
                ],
                [
                    0.07653,
                    0.0,
                    2.09834
                ]
            ],
            [
                [
                    3.12326,
                    0.0,
                    0.04054
                ],
                [
                    0.0001,
                    3.08224,
                    0.0
                ],
                [
                    -0.12812,
                    0.0,
                    2.99395
                ]
            ],
            [
                [
                    3.12326,
                    0.0,
                    -0.04054
                ],
                [
                    0.0001,
                    3.08224,
                    -0.0
                ],
                [
                    0.12802,
                    0.0,
                    2.99397
                ]
            ],
            [
                [
                    3.12333,
                    0.0,
                    0.04058
                ],
                [
                    -0.0001,
                    3.08224,
                    -0.0
                ],
                [
                    -0.12802,
                    0.0,
                    2.99397
                ]
            ],
            [
                [
                    3.12333,
                    0.0,
                    -0.04058
                ],
                [
                    -0.0001,
                    3.08224,
                    0.0
                ],
                [
                    0.12812,
                    0.0,
                    2.99395
                ]
            ],
            [
                [
                    -2.42325,
                    0.0,
                    -0.13458
                ],
                [
                    -0.00078,
                    -1.20456,
                    -0.00022
                ],
                [
                    -0.04149,
                    0.0,
                    -1.22766
                ]
            ],
            [
                [
                    -2.42325,
                    0.0,
                    0.13458
                ],
                [
                    -0.00078,
                    -1.20456,
                    0.00022
                ],
                [
                    0.04276,
                    0.0,
                    -1.2277
                ]
            ],
            [
                [
                    -2.42283,
                    0.0,
                    -0.1342
                ],
                [
                    0.00078,
                    -1.20456,
                    0.00022
                ],
                [
                    -0.04276,
                    0.0,
                    -1.2277
                ]
            ],
            [
                [
                    -2.42283,
                    0.0,
                    0.1342
                ],
                [
                    0.00078,
                    -1.20456,
                    -0.00022
                ],
                [
                    0.04149,
                    0.0,
                    -1.22766
                ]
            ],
            [
                [
                    -1.35369,
                    0.0,
                    -0.22418
                ],
                [
                    -4e-05,
                    -1.14329,
                    -2e-05
                ],
                [
                    -0.28811,
                    0.0,
                    -2.2021
                ]
            ],
            [
                [
                    -1.35369,
                    0.0,
                    0.22418
                ],
                [
                    -4e-05,
                    -1.14329,
                    2e-05
                ],
                [
                    0.28808,
                    0.0,
                    -2.20199
                ]
            ],
            [
                [
                    -1.35375,
                    0.0,
                    -0.22371
                ],
                [
                    4e-05,
                    -1.14329,
                    2e-05
                ],
                [
                    -0.28808,
                    0.0,
                    -2.20199
                ]
            ],
            [
                [
                    -1.35375,
                    0.0,
                    0.22371
                ],
                [
                    4e-05,
                    -1.14329,
                    -2e-05
                ],
                [
                    0.28811,
                    0.0,
                    -2.2021
                ]
            ],
            [
                [
                    -1.47914,
                    0.29545,
                    0.27297
                ],
                [
                    0.39357,
                    -2.09082,
                    -0.00132
                ],
                [
                    0.28002,
                    -0.00708,
                    -1.44411
                ]
            ],
            [
                [
                    -1.47914,
                    -0.29545,
                    -0.27297
                ],
                [
                    -0.39404,
                    -2.09153,
                    -0.0015
                ],
                [
                    -0.27978,
                    -0.00665,
                    -1.44357
                ]
            ],
            [
                [
                    -1.47897,
                    -0.2955,
                    0.2729
                ],
                [
                    -0.39357,
                    -2.09082,
                    0.00132
                ],
                [
                    0.27978,
                    0.00665,
                    -1.44357
                ]
            ],
            [
                [
                    -1.47897,
                    0.2955,
                    -0.2729
                ],
                [
                    0.39404,
                    -2.09153,
                    0.0015
                ],
                [
                    -0.28002,
                    0.00708,
                    -1.44411
                ]
            ],
            [
                [
                    -1.47897,
                    0.2955,
                    0.2729
                ],
                [
                    0.39404,
                    -2.09153,
                    -0.0015
                ],
                [
                    0.27978,
                    -0.00665,
                    -1.44357
                ]
            ],
            [
                [
                    -1.47897,
                    -0.2955,
                    -0.2729
                ],
                [
                    -0.39357,
                    -2.09082,
                    -0.00132
                ],
                [
                    -0.28002,
                    -0.00708,
                    -1.44411
                ]
            ],
            [
                [
                    -1.47914,
                    -0.29545,
                    0.27297
                ],
                [
                    -0.39404,
                    -2.09153,
                    0.0015
                ],
                [
                    0.28002,
                    0.00708,
                    -1.44411
                ]
            ],
            [
                [
                    -1.47914,
                    0.29545,
                    -0.27297
                ],
                [
                    0.39357,
                    -2.09082,
                    0.00132
                ],
                [
                    -0.27978,
                    0.00665,
                    -1.44357
                ]
            ]
        ]
    },
    "band_gap": 3.6764,
    "is_direct": false,
    "formula": "NaCaAsO4"
}