{
    "mp_id": "mp-12878",
    "nelements": 4,
    "nsites": 20,
    "elements": [
        "O",
        "Sb",
        "Sr",
        "Y"
    ],
    "structure": {
        "@module": "pymatgen.core.structure",
        "@class": "Structure",
        "charge": null,
        "lattice": {
            "matrix": [
                [
                    5.7939861,
                    0.0,
                    0.00050382
                ],
                [
                    0.0,
                    5.85776849,
                    0.0
                ],
                [
                    -5.7596585,
                    0.0,
                    8.22237422
                ]
            ],
            "a": 5.793986121905005,
            "b": 5.85776849,
            "c": 10.038979223523818,
            "alpha": 90.0,
            "beta": 125.0057243674842,
            "gamma": 90.0,
            "volume": 279.0829749667507
        },
        "sites": [
            {
                "species": [
                    {
                        "element": "Sr",
                        "occu": 1
                    }
                ],
                "abc": [
                    0.24083484,
                    0.46464728,
                    0.74964666
                ],
                "xyz": [
                    -2.922315041909886,
                    2.721796195748207,
                    6.163996708702195
                ],
                "label": "Sr",
                "properties": {}
            },
            {
                "species": [
                    {
                        "element": "Sr",
                        "occu": 1
                    }
                ],
                "abc": [
                    0.75916516,
                    0.96464728,
                    0.75035334
                ],
                "xyz": [
                    0.07681339190988545,
                    5.650680440748207,
                    6.170068441297807
                ],
                "label": "Sr",
                "properties": {}
            },
            {
                "species": [
                    {
                        "element": "Sr",
                        "occu": 1
                    }
                ],
                "abc": [
                    0.75916516,
                    0.53535272,
                    0.25035334
                ],
                "xyz": [
                    2.9566426419098857,
                    3.135972294251793,
                    2.058881331297806
                ],
                "label": "Sr",
                "properties": {}
            },
            {
                "species": [
                    {
                        "element": "Sr",
                        "occu": 1
                    }
                ],
                "abc": [
                    0.24083484,
                    0.03535272,
                    0.24964666
                ],
                "xyz": [
                    -0.042485791909885995,
                    0.20708804925179278,
                    2.052809598702194
                ],
                "label": "Sr",
                "properties": {}
            },
            {
                "species": [
                    {
                        "element": "Y",
                        "occu": 1
                    }
                ],
                "abc": [
                    0.5,
                    0.0,
                    0.0
                ],
                "xyz": [
                    2.89699305,
                    0.0,
                    0.00025191
                ],
                "label": "Y",
                "properties": {}
            },
            {
                "species": [
                    {
                        "element": "Y",
                        "occu": 1
                    }
                ],
                "abc": [
                    0.5,
                    0.5,
                    0.5
                ],
                "xyz": [
                    0.017163800000000062,
                    2.928884245,
                    4.111439020000001
                ],
                "label": "Y",
                "properties": {}
            },
            {
                "species": [
                    {
                        "element": "Sb",
                        "occu": 1
                    }
                ],
                "abc": [
                    0.0,
                    0.5,
                    0.0
                ],
                "xyz": [
                    0.0,
                    2.928884245,
                    0.0
                ],
                "label": "Sb",
                "properties": {}
            },
            {
                "species": [
                    {
                        "element": "Sb",
                        "occu": 1
                    }
                ],
                "abc": [
                    0.0,
                    0.0,
                    0.5
                ],
                "xyz": [
                    -2.87982925,
                    0.0,
                    4.11118711
                ],
                "label": "Sb",
                "properties": {}
            },
            {
                "species": [
                    {
                        "element": "O",
                        "occu": 1
                    }
                ],
                "abc": [
                    0.31487046,
                    0.02217089,
                    0.73621622
                ],
                "xyz": [
                    -2.4159989408202636,
                    0.1298719408372561,
                    6.053603905709005
                ],
                "label": "O",
                "properties": {}
            },
            {
                "species": [
                    {
                        "element": "O",
                        "occu": 1
                    }
                ],
                "abc": [
                    0.68512954,
                    0.52217089,
                    0.76378378
                ],
                "xyz": [
                    -0.42950270917973565,
                    3.0587561858372565,
                    6.280461244290995
                ],
                "label": "O",
                "properties": {}
            },
            {
                "species": [
                    {
                        "element": "O",
                        "occu": 1
                    }
                ],
                "abc": [
                    0.68512954,
                    0.97782911,
                    0.26378378
                ],
                "xyz": [
                    2.4503265408202637,
                    5.727896549162743,
                    2.169274134290995
                ],
                "label": "O",
                "properties": {}
            },
            {
                "species": [
                    {
                        "element": "O",
                        "occu": 1
                    }
                ],
                "abc": [
                    0.31487046,
                    0.47782911,
                    0.23621622
                ],
                "xyz": [
                    0.463830309179736,
                    2.7990123041627437,
                    1.942416795709006
                ],
                "label": "O",
                "properties": {}
            },
            {
                "species": [
                    {
                        "element": "O",
                        "occu": 1
                    }
                ],
                "abc": [
                    0.23262957,
                    0.70108498,
                    0.95941938
                ],
                "xyz": [
                    -4.178075492052752,
                    4.10679350465628,
                    7.8888223797103425
                ],
                "label": "O",
                "properties": {}
            },
            {
                "species": [
                    {
                        "element": "O",
                        "occu": 1
                    }
                ],
                "abc": [
                    0.76737043,
                    0.20108498,
                    0.54058062
                ],
                "xyz": [
                    1.3325738420527538,
                    1.1779092596562801,
                    4.445242770289659
                ],
                "label": "O",
                "properties": {}
            },
            {
                "species": [
                    {
                        "element": "O",
                        "occu": 1
                    }
                ],
                "abc": [
                    0.76737043,
                    0.29891502,
                    0.04058062
                ],
                "xyz": [
                    4.212403092052753,
                    1.7509749853437195,
                    0.334055660289659
                ],
                "label": "O",
                "properties": {}
            },
            {
                "species": [
                    {
                        "element": "O",
                        "occu": 1
                    }
                ],
                "abc": [
                    0.23262957,
                    0.79891502,
                    0.45941938
                ],
                "xyz": [
                    -1.2982462420527527,
                    4.67985923034372,
                    3.7776352697103412
                ],
                "label": "O",
                "properties": {}
            },
            {
                "species": [
                    {
                        "element": "O",
                        "occu": 1
                    }
                ],
                "abc": [
                    0.15466745,
                    0.2742543,
                    0.45674027
                ],
                "xyz": [
                    -1.7345269229753497,
                    1.606518196787007,
                    3.755567345838499
                ],
                "label": "O",
                "properties": {}
            },
            {
                "species": [
                    {
                        "element": "O",
                        "occu": 1
                    }
                ],
                "abc": [
                    0.84533255,
                    0.7742543,
                    0.04325973
                ],
                "xyz": [
                    4.64868377297535,
                    4.5354024417870065,
                    0.35612358416150164
                ],
                "label": "O",
                "properties": {}
            },
            {
                "species": [
                    {
                        "element": "O",
                        "occu": 1
                    }
                ],
                "abc": [
                    0.84533255,
                    0.7257457,
                    0.54325973
                ],
                "xyz": [
                    1.7688545229753494,
                    4.251250293212993,
                    4.467310694161502
                ],
                "label": "O",
                "properties": {}
            },
            {
                "species": [
                    {
                        "element": "O",
                        "occu": 1
                    }
                ],
                "abc": [
                    0.15466745,
                    0.2257457,
                    0.95674027
                ],
                "xyz": [
                    -4.614356172975349,
                    1.3223660482129929,
                    7.866754455838499
                ],
                "label": "O",
                "properties": {}
            }
        ]
    },
    "spacegroup": {
        "source": "spglib",
        "symbol": "P2_1/c",
        "number": 14,
        "point_group": "2/m",
        "crystal_system": "monoclinic",
        "hall": "-P 2ybc"
    },
    "dielectric": {
        "epsilon_ionic": [
            [
                11.98127213,
                -0.0,
                0.05695795
            ],
            [
                -0.0,
                13.24959392,
                -0.0
            ],
            [
                0.05695795,
                -0.0,
                14.36457454
            ]
        ],
        "epsilon_ionic_avg": 13.198480196666667,
        "epsilon_ionic_eig": [
            11.97991168273245,
            14.365934987267552,
            13.24959392
        ],
        "epsilon_electronic": [
            [
                4.03909195,
                0.0,
                0.00237887
            ],
            [
                0.0,
                4.0246291,
                0.0
            ],
            [
                0.00238062,
                0.0,
                3.99488614
            ]
        ],
        "epsilon_electronic_avg": 4.01953573,
        "epsilon_electronic_eig": [
            4.039219690400852,
            3.994758399599148,
            4.0246291
        ]
    },
    "phonon": {
        "lowest_freq": -0.024551497102203005,
        "frequency": [
            -0.024551497102203005,
            -0.016787815220065398,
            -0.00691971324436181,
            2.7311886157050926,
            2.9756398896042064,
            3.075540853377886,
            3.2457971960946077,
            3.3470410754795523,
            3.347258269355558,
            3.4040700117390448,
            3.744694727285185,
            3.7852653996350094,
            4.144120842828899,
            4.146920164094002,
            4.187390370670462,
            4.3281103068655,
            4.475370533374876,
            4.512314680040818,
            4.636225230513704,
            4.726254022452364,
            5.147597957615896,
            5.954677060093628,
            6.373461782066147,
            6.525119234968988,
            6.737823650999431,
            6.771935299940373,
            6.81649493263043,
            6.918991419421238,
            7.424122042963328,
            7.464457116665801,
            7.654963521285655,
            7.725724775829432,
            7.996093914707614,
            8.100791956536128,
            8.95042705628384,
            9.680011910625533,
            9.79586803747396,
            9.827722020638262,
            10.179486311923666,
            10.450146796919583,
            10.644582497267672,
            11.07230623355822,
            11.42917932487811,
            11.449896341605086,
            11.695283528585366,
            11.82968974923159,
            12.661847891307977,
            13.479276556732342,
            16.822179585420525,
            16.88683918618872,
            16.973381171468127,
            17.742130713385187,
            17.80307561832357,
            17.895051089318795,
            18.081942801728268,
            18.15737914994948,
            18.270601255046163,
            20.60494907055336,
            21.511494503896788,
            21.88430593368104
        ]
    },
    "born_effective_charge": {
        "avg_abs_trace": 2.782774666666667,
        "tensors": [
            [
                [
                    2.53371,
                    -0.10607,
                    -0.01458
                ],
                [
                    -0.1181,
                    2.47282,
                    0.00612
                ],
                [
                    0.00269,
                    0.00807,
                    2.4287
                ]
            ],
            [
                [
                    2.53374,
                    0.10607,
                    -0.01461
                ],
                [
                    0.1181,
                    2.47282,
                    -0.00612
                ],
                [
                    0.00271,
                    -0.00807,
                    2.42871
                ]
            ],
            [
                [
                    2.53374,
                    -0.10607,
                    -0.01461
                ],
                [
                    -0.11844,
                    2.47272,
                    0.00616
                ],
                [
                    0.00271,
                    0.00807,
                    2.42871
                ]
            ],
            [
                [
                    2.53371,
                    0.10607,
                    -0.01458
                ],
                [
                    0.11844,
                    2.47272,
                    -0.00616
                ],
                [
                    0.00269,
                    -0.00807,
                    2.4287
                ]
            ],
            [
                [
                    4.09872,
                    0.22856,
                    0.37385
                ],
                [
                    -0.13319,
                    4.08478,
                    -0.07255
                ],
                [
                    -0.23831,
                    -0.12957,
                    4.08677
                ]
            ],
            [
                [
                    4.09872,
                    -0.22856,
                    0.37385
                ],
                [
                    0.13319,
                    4.08478,
                    0.07255
                ],
                [
                    -0.23831,
                    0.12957,
                    4.08677
                ]
            ],
            [
                [
                    4.83399,
                    -0.17183,
                    -0.2886
                ],
                [
                    0.0931,
                    4.89111,
                    -0.05895
                ],
                [
                    0.18051,
                    -0.09994,
                    4.87585
                ]
            ],
            [
                [
                    4.83399,
                    0.17183,
                    -0.2886
                ],
                [
                    -0.0931,
                    4.89111,
                    0.05895
                ],
                [
                    0.18051,
                    0.09994,
                    4.87585
                ]
            ],
            [
                [
                    -1.95396,
                    0.05374,
                    -0.05479
                ],
                [
                    0.10114,
                    -1.78946,
                    -0.01685
                ],
                [
                    -0.01023,
                    0.00942,
                    -3.22111
                ]
            ],
            [
                [
                    -1.95397,
                    -0.05376,
                    -0.0548
                ],
                [
                    -0.10114,
                    -1.78946,
                    0.01685
                ],
                [
                    -0.01024,
                    -0.00942,
                    -3.22111
                ]
            ],
            [
                [
                    -1.95397,
                    0.05376,
                    -0.0548
                ],
                [
                    0.10137,
                    -1.78936,
                    -0.01692
                ],
                [
                    -0.01024,
                    0.00942,
                    -3.22111
                ]
            ],
            [
                [
                    -1.95396,
                    -0.05374,
                    -0.05479
                ],
                [
                    -0.10137,
                    -1.78936,
                    0.01692
                ],
                [
                    -0.01023,
                    -0.00942,
                    -3.22111
                ]
            ],
            [
                [
                    -2.54598,
                    -0.6917,
                    -0.01107
                ],
                [
                    -0.67404,
                    -2.57646,
                    -0.0704
                ],
                [
                    0.00058,
                    -0.0213,
                    -1.84648
                ]
            ],
            [
                [
                    -2.54598,
                    0.69172,
                    -0.01106
                ],
                [
                    0.67404,
                    -2.57646,
                    0.0704
                ],
                [
                    0.00058,
                    0.02129,
                    -1.84652
                ]
            ],
            [
                [
                    -2.54598,
                    -0.69172,
                    -0.01106
                ],
                [
                    -0.67356,
                    -2.57662,
                    -0.07052
                ],
                [
                    0.00058,
                    -0.02129,
                    -1.84652
                ]
            ],
            [
                [
                    -2.54598,
                    0.6917,
                    -0.01107
                ],
                [
                    0.67356,
                    -2.57662,
                    0.07052
                ],
                [
                    0.00058,
                    0.0213,
                    -1.84648
                ]
            ],
            [
                [
                    -2.50014,
                    -0.65064,
                    0.03784
                ],
                [
                    -0.70507,
                    -2.5947,
                    0.04601
                ],
                [
                    0.03585,
                    0.09622,
                    -1.84242
                ]
            ],
            [
                [
                    -2.50013,
                    0.65065,
                    0.03784
                ],
                [
                    0.70507,
                    -2.5947,
                    -0.04601
                ],
                [
                    0.03585,
                    -0.0962,
                    -1.8424
                ]
            ],
            [
                [
                    -2.50013,
                    -0.65065,
                    0.03784
                ],
                [
                    -0.70531,
                    -2.59482,
                    0.04593
                ],
                [
                    0.03585,
                    0.0962,
                    -1.8424
                ]
            ],
            [
                [
                    -2.50014,
                    0.65064,
                    0.03784
                ],
                [
                    0.70531,
                    -2.59482,
                    -0.04593
                ],
                [
                    0.03585,
                    -0.09622,
                    -1.84242
                ]
            ]
        ]
    },
    "band_gap": 3.9309,
    "is_direct": false,
    "formula": "Sr2YSbO6"
}