{
    "mp_id": "mp-1205877",
    "nelements": 3,
    "nsites": 6,
    "elements": [
        "Cs",
        "O",
        "Tl"
    ],
    "structure": {
        "@module": "pymatgen.core.structure",
        "@class": "Structure",
        "charge": null,
        "lattice": {
            "matrix": [
                [
                    7.01049977,
                    -1.8744638,
                    -0.00235415
                ],
                [
                    7.01049977,
                    1.8744638,
                    -0.00235415
                ],
                [
                    -1.8246286,
                    0.0,
                    6.26973827
                ]
            ],
            "a": 7.2567711211462855,
            "b": 7.2567711211462855,
            "c": 6.529845901875523,
            "alpha": 105.6795967755891,
            "beta": 105.6795967755891,
            "gamma": 29.939078954375884,
            "volume": 164.76425552714622
        },
        "sites": [
            {
                "species": [
                    {
                        "element": "Cs",
                        "occu": 1
                    }
                ],
                "abc": [
                    0.1206705,
                    0.1206705,
                    0.34145142
                ],
                "xyz": [
                    1.0688989985489579,
                    0.0,
                    2.1402428824046935
                ],
                "label": "Cs",
                "properties": {}
            },
            {
                "species": [
                    {
                        "element": "Cs",
                        "occu": 1
                    }
                ],
                "abc": [
                    0.8793295,
                    0.8793295,
                    0.65854858
                ],
                "xyz": [
                    11.127471941451041,
                    0.0,
                    4.124787087595307
                ],
                "label": "Cs",
                "properties": {}
            },
            {
                "species": [
                    {
                        "element": "Tl",
                        "occu": 1
                    }
                ],
                "abc": [
                    0.35128937,
                    0.35128937,
                    0.14296005
                ],
                "xyz": [
                    4.66457909928946,
                    0.0,
                    0.8946681208253426
                ],
                "label": "Tl",
                "properties": {}
            },
            {
                "species": [
                    {
                        "element": "Tl",
                        "occu": 1
                    }
                ],
                "abc": [
                    0.64871063,
                    0.64871063,
                    0.85703995
                ],
                "xyz": [
                    7.5317918407105395,
                    0.0,
                    5.370361849174658
                ],
                "label": "Tl",
                "properties": {}
            },
            {
                "species": [
                    {
                        "element": "O",
                        "occu": 1
                    }
                ],
                "abc": [
                    0.75156568,
                    0.75156568,
                    0.20778509
                ],
                "xyz": [
                    10.158571435692213,
                    0.0,
                    1.2992195340172503
                ],
                "label": "O",
                "properties": {}
            },
            {
                "species": [
                    {
                        "element": "O",
                        "occu": 1
                    }
                ],
                "abc": [
                    0.24843432,
                    0.24843432,
                    0.79221491
                ],
                "xyz": [
                    2.0377995043077863,
                    0.0,
                    4.965810435982751
                ],
                "label": "O",
                "properties": {}
            }
        ]
    },
    "spacegroup": {
        "source": "spglib",
        "symbol": "C2/m",
        "number": 12,
        "point_group": "2/m",
        "crystal_system": "monoclinic",
        "hall": "-C 2y"
    },
    "dielectric": {
        "epsilon_ionic": [
            [
                2.89058599,
                -4e-08,
                -0.62146819
            ],
            [
                -4e-08,
                9.33706128,
                -1e-07
            ],
            [
                -0.62146819,
                -1e-07,
                5.6344716
            ]
        ],
        "epsilon_ionic_avg": 5.954039623333334,
        "epsilon_ionic_eig": [
            2.75639142697106,
            5.768666163028938,
            9.337061280000006
        ],
        "epsilon_electronic": [
            [
                5.10138385,
                0.0,
                0.11691847
            ],
            [
                0.0,
                5.72851404,
                0.0
            ],
            [
                0.11691753,
                0.0,
                4.94964968
            ]
        ],
        "epsilon_electronic_avg": 5.259849190000001,
        "epsilon_electronic_eig": [
            5.164892635616748,
            4.886140894383253,
            5.72851404
        ]
    },
    "phonon": {
        "lowest_freq": -0.09064492410965082,
        "frequency": [
            -0.09064492410965082,
            -0.025666700852635834,
            -0.019638290200658937,
            1.272036021358096,
            1.4293851273602665,
            1.6739321670389702,
            1.867782840385668,
            1.884393160397687,
            1.9472152421014621,
            2.3938868003251828,
            2.634697533193869,
            3.448913329469669,
            5.803948186755106,
            6.44466076278786,
            7.348866962885363,
            7.98012622093444,
            9.144457083492107,
            10.814406361219632
        ]
    },
    "born_effective_charge": {
        "avg_abs_trace": 1.653566111111111,
        "tensors": [
            [
                [
                    1.29947,
                    0.0,
                    -0.22322
                ],
                [
                    0.00025,
                    1.1411,
                    -0.00021
                ],
                [
                    -0.25944,
                    0.0,
                    1.49832
                ]
            ],
            [
                [
                    1.2995,
                    0.0,
                    -0.22327
                ],
                [
                    -0.00025,
                    1.1411,
                    0.00021
                ],
                [
                    -0.25952,
                    0.0,
                    1.4983
                ]
            ],
            [
                [
                    0.86198,
                    0.0,
                    0.49048
                ],
                [
                    0.00016,
                    1.83032,
                    -0.00019
                ],
                [
                    0.41581,
                    0.0,
                    0.80995
                ]
            ],
            [
                [
                    0.86167,
                    0.0,
                    0.49078
                ],
                [
                    -0.00016,
                    1.83032,
                    0.00019
                ],
                [
                    0.41512,
                    0.0,
                    0.81006
                ]
            ],
            [
                [
                    -2.16113,
                    0.0,
                    -0.26777
                ],
                [
                    -0.00037,
                    -2.97143,
                    0.00015
                ],
                [
                    -0.15528,
                    0.0,
                    -2.30892
                ]
            ],
            [
                [
                    -2.16148,
                    0.0,
                    -0.267
                ],
                [
                    0.00037,
                    -2.97143,
                    -0.00015
                ],
                [
                    -0.15669,
                    0.0,
                    -2.30771
                ]
            ]
        ]
    },
    "band_gap": 1.4409,
    "is_direct": false,
    "formula": "CsTlO"
}