{
    "mp_id": "mp-1214739",
    "nelements": 4,
    "nsites": 24,
    "elements": [
        "Ba",
        "Cd",
        "Ge",
        "O"
    ],
    "structure": {
        "@module": "pymatgen.core.structure",
        "@class": "Structure",
        "charge": null,
        "lattice": {
            "matrix": [
                [
                    8.67308894,
                    0.0,
                    0.0
                ],
                [
                    0.0,
                    8.67308894,
                    0.0
                ],
                [
                    0.0,
                    0.0,
                    5.55601095
                ]
            ],
            "a": 8.67308894,
            "b": 8.67308894,
            "c": 5.55601095,
            "alpha": 90.0,
            "beta": 90.0,
            "gamma": 90.0,
            "volume": 417.93687679101697
        },
        "sites": [
            {
                "species": [
                    {
                        "element": "Ba",
                        "occu": 1
                    }
                ],
                "abc": [
                    0.33485783,
                    0.16514217,
                    0.5063145
                ],
                "xyz": [
                    2.9042517418454,
                    1.4322927281545998,
                    2.813088906143775
                ],
                "label": "Ba",
                "properties": {}
            },
            {
                "species": [
                    {
                        "element": "Ba",
                        "occu": 1
                    }
                ],
                "abc": [
                    0.66514217,
                    0.83485783,
                    0.5063145
                ],
                "xyz": [
                    5.768837198154599,
                    7.2407962118454,
                    2.813088906143775
                ],
                "label": "Ba",
                "properties": {}
            },
            {
                "species": [
                    {
                        "element": "Ba",
                        "occu": 1
                    }
                ],
                "abc": [
                    0.16514217,
                    0.66514217,
                    0.4936855
                ],
                "xyz": [
                    1.4322927281545998,
                    5.768837198154599,
                    2.742922043856225
                ],
                "label": "Ba",
                "properties": {}
            },
            {
                "species": [
                    {
                        "element": "Ba",
                        "occu": 1
                    }
                ],
                "abc": [
                    0.83485783,
                    0.33485783,
                    0.4936855
                ],
                "xyz": [
                    7.2407962118454,
                    2.9042517418454,
                    2.742922043856225
                ],
                "label": "Ba",
                "properties": {}
            },
            {
                "species": [
                    {
                        "element": "Cd",
                        "occu": 1
                    }
                ],
                "abc": [
                    0.0,
                    0.0,
                    0.0
                ],
                "xyz": [
                    0.0,
                    0.0,
                    0.0
                ],
                "label": "Cd",
                "properties": {}
            },
            {
                "species": [
                    {
                        "element": "Cd",
                        "occu": 1
                    }
                ],
                "abc": [
                    0.5,
                    0.5,
                    0.0
                ],
                "xyz": [
                    4.33654447,
                    4.33654447,
                    0.0
                ],
                "label": "Cd",
                "properties": {}
            },
            {
                "species": [
                    {
                        "element": "Ge",
                        "occu": 1
                    }
                ],
                "abc": [
                    0.86169968,
                    0.63830032,
                    0.9479961
                ],
                "xyz": [
                    7.473597964209539,
                    5.536035445790461,
                    5.267076712157295
                ],
                "label": "Ge",
                "properties": {}
            },
            {
                "species": [
                    {
                        "element": "Ge",
                        "occu": 1
                    }
                ],
                "abc": [
                    0.13830032,
                    0.36169968,
                    0.9479961
                ],
                "xyz": [
                    1.1994909757904608,
                    3.1370534942095394,
                    5.267076712157295
                ],
                "label": "Ge",
                "properties": {}
            },
            {
                "species": [
                    {
                        "element": "Ge",
                        "occu": 1
                    }
                ],
                "abc": [
                    0.63830032,
                    0.13830032,
                    0.0520039
                ],
                "xyz": [
                    5.536035445790461,
                    1.1994909757904608,
                    0.288934237842705
                ],
                "label": "Ge",
                "properties": {}
            },
            {
                "species": [
                    {
                        "element": "Ge",
                        "occu": 1
                    }
                ],
                "abc": [
                    0.36169968,
                    0.86169968,
                    0.0520039
                ],
                "xyz": [
                    3.1370534942095394,
                    7.473597964209539,
                    0.288934237842705
                ],
                "label": "Ge",
                "properties": {}
            },
            {
                "species": [
                    {
                        "element": "O",
                        "occu": 1
                    }
                ],
                "abc": [
                    0.5,
                    0.0,
                    0.1730595
                ],
                "xyz": [
                    4.33654447,
                    0.0,
                    0.9615204770015251
                ],
                "label": "O",
                "properties": {}
            },
            {
                "species": [
                    {
                        "element": "O",
                        "occu": 1
                    }
                ],
                "abc": [
                    0.0,
                    0.5,
                    0.8269405
                ],
                "xyz": [
                    0.0,
                    4.33654447,
                    4.594490472998475
                ],
                "label": "O",
                "properties": {}
            },
            {
                "species": [
                    {
                        "element": "O",
                        "occu": 1
                    }
                ],
                "abc": [
                    0.86085412,
                    0.63914588,
                    0.2638475
                ],
                "xyz": [
                    7.466264347125432,
                    5.543369062874567,
                    1.4659395991301252
                ],
                "label": "O",
                "properties": {}
            },
            {
                "species": [
                    {
                        "element": "O",
                        "occu": 1
                    }
                ],
                "abc": [
                    0.13914588,
                    0.36085412,
                    0.2638475
                ],
                "xyz": [
                    1.2068245928745671,
                    3.1297198771254324,
                    1.4659395991301252
                ],
                "label": "O",
                "properties": {}
            },
            {
                "species": [
                    {
                        "element": "O",
                        "occu": 1
                    }
                ],
                "abc": [
                    0.63914588,
                    0.13914588,
                    0.7361525
                ],
                "xyz": [
                    5.543369062874567,
                    1.2068245928745671,
                    4.090071350869875
                ],
                "label": "O",
                "properties": {}
            },
            {
                "species": [
                    {
                        "element": "O",
                        "occu": 1
                    }
                ],
                "abc": [
                    0.36085412,
                    0.86085412,
                    0.7361525
                ],
                "xyz": [
                    3.1297198771254324,
                    7.466264347125432,
                    4.090071350869875
                ],
                "label": "O",
                "properties": {}
            },
            {
                "species": [
                    {
                        "element": "O",
                        "occu": 1
                    }
                ],
                "abc": [
                    0.80624856,
                    0.07730447,
                    0.2139423
                ],
                "xyz": [
                    6.992665468626926,
                    0.6704685437695618,
                    1.188665761468185
                ],
                "label": "O",
                "properties": {}
            },
            {
                "species": [
                    {
                        "element": "O",
                        "occu": 1
                    }
                ],
                "abc": [
                    0.19375144,
                    0.92269553,
                    0.2139423
                ],
                "xyz": [
                    1.6804234713730735,
                    8.002620396230439,
                    1.188665761468185
                ],
                "label": "O",
                "properties": {}
            },
            {
                "species": [
                    {
                        "element": "O",
                        "occu": 1
                    }
                ],
                "abc": [
                    0.07730447,
                    0.19375144,
                    0.7860577
                ],
                "xyz": [
                    0.6704685437695618,
                    1.6804234713730735,
                    4.367345188531815
                ],
                "label": "O",
                "properties": {}
            },
            {
                "species": [
                    {
                        "element": "O",
                        "occu": 1
                    }
                ],
                "abc": [
                    0.30624856,
                    0.42269553,
                    0.7860577
                ],
                "xyz": [
                    2.656120998626926,
                    3.666075926230438,
                    4.367345188531815
                ],
                "label": "O",
                "properties": {}
            },
            {
                "species": [
                    {
                        "element": "O",
                        "occu": 1
                    }
                ],
                "abc": [
                    0.92269553,
                    0.80624856,
                    0.7860577
                ],
                "xyz": [
                    8.002620396230439,
                    6.992665468626926,
                    4.367345188531815
                ],
                "label": "O",
                "properties": {}
            },
            {
                "species": [
                    {
                        "element": "O",
                        "occu": 1
                    }
                ],
                "abc": [
                    0.69375144,
                    0.57730447,
                    0.7860577
                ],
                "xyz": [
                    6.016967941373073,
                    5.007013013769561,
                    4.367345188531815
                ],
                "label": "O",
                "properties": {}
            },
            {
                "species": [
                    {
                        "element": "O",
                        "occu": 1
                    }
                ],
                "abc": [
                    0.57730447,
                    0.30624856,
                    0.2139423
                ],
                "xyz": [
                    5.007013013769561,
                    2.656120998626926,
                    1.188665761468185
                ],
                "label": "O",
                "properties": {}
            },
            {
                "species": [
                    {
                        "element": "O",
                        "occu": 1
                    }
                ],
                "abc": [
                    0.42269553,
                    0.69375144,
                    0.2139423
                ],
                "xyz": [
                    3.666075926230438,
                    6.016967941373073,
                    1.188665761468185
                ],
                "label": "O",
                "properties": {}
            }
        ]
    },
    "spacegroup": {
        "source": "spglib",
        "symbol": "P-42_1m",
        "number": 113,
        "point_group": "-42m",
        "crystal_system": "tetragonal",
        "hall": "P -4 2ab"
    },
    "dielectric": {
        "epsilon_ionic": [
            [
                7.81619739,
                -1e-08,
                0.0
            ],
            [
                -1e-08,
                7.81619678,
                0.0
            ],
            [
                0.0,
                0.0,
                4.77847357
            ]
        ],
        "epsilon_ionic_avg": 6.80362258,
        "epsilon_ionic_eig": [
            7.81619739016389,
            7.81619677983611,
            4.77847357
        ],
        "epsilon_electronic": [
            [
                3.42879425,
                0.0,
                0.0
            ],
            [
                -0.0,
                3.42879425,
                0.0
            ],
            [
                0.0,
                0.0,
                3.38323838
            ]
        ],
        "epsilon_electronic_avg": 3.41360896,
        "epsilon_electronic_eig": [
            3.42879425,
            3.42879425,
            3.38323838
        ]
    },
    "phonon": {
        "lowest_freq": -0.0655472802136111,
        "frequency": [
            -0.0655472802136111,
            -0.0655472802136111,
            -0.0480723131801233,
            1.5359884465671283,
            1.6660672890379054,
            1.6660672890379054,
            2.2632059824036808,
            2.3204506998867522,
            2.3307753653040773,
            2.3485303318935675,
            2.3485303318935675,
            2.6258988808802286,
            2.6258988808802286,
            2.815983845545795,
            2.85632614324548,
            2.85632614324548,
            3.036872031182209,
            3.2299320734853505,
            3.4999706740283436,
            3.5496317471923065,
            3.805416829595418,
            3.805416829595418,
            4.068885145699574,
            4.084576807437163,
            4.084576807437163,
            4.594178179203516,
            4.594178179203516,
            4.823745280381562,
            5.192994312656143,
            5.192994312656143,
            5.377134480885159,
            5.813943567887706,
            5.947157986457289,
            6.043417138518667,
            6.707861904402644,
            6.707861904402644,
            7.00909371143375,
            7.00909371143375,
            7.045938646179891,
            7.7407014010374775,
            8.240447364207531,
            8.435482320034087,
            8.613805509162784,
            8.613805509162784,
            10.040490150731163,
            10.903456415318962,
            10.961613490164313,
            10.961613490164313,
            11.085068134592069,
            11.84460611612597,
            11.84460611612597,
            12.314359259239648,
            12.821406896651666,
            12.916912360782947,
            13.387709211316343,
            13.387709211316343,
            14.112471128546646,
            14.466883243723895,
            20.392530121324608,
            20.392530121324608,
            20.485274966761036,
            20.485274966761036,
            20.661542963775666,
            22.135266774887512,
            22.26073350882126,
            22.296711424710075,
            22.468972803479637,
            22.468972803479637,
            22.603939545193267,
            22.878445234423218,
            24.913018953944174,
            24.913018953944174
        ]
    },
    "born_effective_charge": {
        "avg_abs_trace": 2.238169861111111,
        "tensors": [
            [
                [
                    2.56977,
                    -0.34775,
                    -0.19082
                ],
                [
                    -0.34776,
                    2.56976,
                    0.19085
                ],
                [
                    -0.10749,
                    0.10749,
                    2.80627
                ]
            ],
            [
                [
                    2.56977,
                    -0.34774,
                    0.19084
                ],
                [
                    -0.34773,
                    2.56979,
                    -0.19081
                ],
                [
                    0.10749,
                    -0.10749,
                    2.80627
                ]
            ],
            [
                [
                    2.56977,
                    0.34774,
                    -0.19084
                ],
                [
                    0.34776,
                    2.56976,
                    -0.19085
                ],
                [
                    -0.10759,
                    -0.10759,
                    2.80622
                ]
            ],
            [
                [
                    2.56977,
                    0.34775,
                    0.19082
                ],
                [
                    0.34773,
                    2.56979,
                    0.19081
                ],
                [
                    0.10759,
                    0.10759,
                    2.80622
                ]
            ],
            [
                [
                    2.4668,
                    -0.008,
                    1e-05
                ],
                [
                    0.008,
                    2.4668,
                    -0.0
                ],
                [
                    0.0,
                    -0.0,
                    1.56929
                ]
            ],
            [
                [
                    2.4668,
                    0.008,
                    -1e-05
                ],
                [
                    -0.008,
                    2.4668,
                    0.0
                ],
                [
                    0.0,
                    -0.0,
                    1.56929
                ]
            ],
            [
                [
                    3.00706,
                    -0.04617,
                    -0.01241
                ],
                [
                    -0.04624,
                    3.00707,
                    0.01245
                ],
                [
                    -0.01398,
                    0.01398,
                    2.93227
                ]
            ],
            [
                [
                    3.00707,
                    -0.04625,
                    0.01245
                ],
                [
                    -0.04618,
                    3.00705,
                    -0.01241
                ],
                [
                    0.01398,
                    -0.01398,
                    2.93227
                ]
            ],
            [
                [
                    3.00707,
                    0.04625,
                    -0.01245
                ],
                [
                    0.04624,
                    3.00707,
                    -0.01245
                ],
                [
                    -0.01394,
                    -0.01394,
                    2.93206
                ]
            ],
            [
                [
                    3.00706,
                    0.04617,
                    0.01241
                ],
                [
                    0.04618,
                    3.00705,
                    0.01241
                ],
                [
                    0.01394,
                    0.01394,
                    2.93206
                ]
            ],
            [
                [
                    -2.31664,
                    -0.89365,
                    0.0
                ],
                [
                    -0.89365,
                    -2.31664,
                    0.0
                ],
                [
                    0.0,
                    -0.0,
                    -1.67463
                ]
            ],
            [
                [
                    -2.31664,
                    0.89365,
                    -0.0
                ],
                [
                    0.89365,
                    -2.31664,
                    -0.0
                ],
                [
                    0.0,
                    -0.0,
                    -1.67494
                ]
            ],
            [
                [
                    -1.56738,
                    0.11997,
                    0.06476
                ],
                [
                    0.11987,
                    -1.56743,
                    -0.06473
                ],
                [
                    0.01267,
                    -0.01267,
                    -2.31336
                ]
            ],
            [
                [
                    -1.56744,
                    0.11987,
                    -0.06473
                ],
                [
                    0.11997,
                    -1.56738,
                    0.06476
                ],
                [
                    -0.01267,
                    0.01267,
                    -2.31336
                ]
            ],
            [
                [
                    -1.56744,
                    -0.11987,
                    0.06473
                ],
                [
                    -0.11987,
                    -1.56743,
                    0.06473
                ],
                [
                    0.0127,
                    0.0127,
                    -2.31344
                ]
            ],
            [
                [
                    -1.56738,
                    -0.11997,
                    -0.06476
                ],
                [
                    -0.11997,
                    -1.56738,
                    -0.06476
                ],
                [
                    -0.0127,
                    -0.0127,
                    -2.31344
                ]
            ],
            [
                [
                    -2.31597,
                    0.29922,
                    -0.15914
                ],
                [
                    0.22983,
                    -1.76861,
                    -0.05548
                ],
                [
                    0.02311,
                    -0.08323,
                    -1.68595
                ]
            ],
            [
                [
                    -2.3159,
                    0.29928,
                    0.15913
                ],
                [
                    0.22979,
                    -1.76854,
                    0.05558
                ],
                [
                    -0.02311,
                    0.08323,
                    -1.68595
                ]
            ],
            [
                [
                    -1.76859,
                    -0.22982,
                    0.05548
                ],
                [
                    -0.29929,
                    -2.31589,
                    -0.15913
                ],
                [
                    0.08322,
                    0.023,
                    -1.68632
                ]
            ],
            [
                [
                    -2.31597,
                    -0.29922,
                    0.15914
                ],
                [
                    -0.22979,
                    -1.76854,
                    -0.05558
                ],
                [
                    -0.023,
                    -0.08322,
                    -1.68632
                ]
            ],
            [
                [
                    -1.76855,
                    -0.2298,
                    -0.05558
                ],
                [
                    -0.29922,
                    -2.31598,
                    0.15915
                ],
                [
                    -0.08322,
                    -0.023,
                    -1.68632
                ]
            ],
            [
                [
                    -2.3159,
                    -0.29928,
                    -0.15913
                ],
                [
                    -0.22983,
                    -1.76861,
                    0.05548
                ],
                [
                    0.023,
                    0.08322,
                    -1.68632
                ]
            ],
            [
                [
                    -1.76859,
                    0.22982,
                    -0.05548
                ],
                [
                    0.29922,
                    -2.31598,
                    -0.15915
                ],
                [
                    -0.08323,
                    0.02311,
                    -1.68595
                ]
            ],
            [
                [
                    -1.76855,
                    0.2298,
                    0.05558
                ],
                [
                    0.29929,
                    -2.31589,
                    0.15913
                ],
                [
                    0.08323,
                    -0.02311,
                    -1.68595
                ]
            ]
        ]
    },
    "band_gap": 2.8030999999999997,
    "is_direct": false,
    "formula": "Ba2CdGe2O7"
}