{
    "mp_id": "mp-1227186",
    "nelements": 4,
    "nsites": 24,
    "elements": [
        "Al",
        "Ca",
        "La",
        "O"
    ],
    "structure": {
        "@module": "pymatgen.core.structure",
        "@class": "Structure",
        "charge": null,
        "lattice": {
            "matrix": [
                [
                    5.14316119,
                    0.0,
                    -9.861e-05
                ],
                [
                    0.0,
                    7.78746785,
                    0.0
                ],
                [
                    -0.01934737,
                    0.0,
                    7.77970499
                ]
            ],
            "a": 5.143161190945326,
            "b": 7.78746785,
            "c": 7.779729047476963,
            "alpha": 90.0,
            "beta": 90.14358727372588,
            "gamma": 90.0,
            "volume": 311.5943041272442
        },
        "sites": [
            {
                "species": [
                    {
                        "element": "Ca",
                        "occu": 1
                    }
                ],
                "abc": [
                    0.02364248,
                    0.33707352,
                    0.91992737
                ],
                "xyz": [
                    0.1037989103708343,
                    2.624949200086332,
                    7.1567612194416235
                ],
                "label": "Ca",
                "properties": {}
            },
            {
                "species": [
                    {
                        "element": "Ca",
                        "occu": 1
                    }
                ],
                "abc": [
                    0.97635752,
                    0.83707352,
                    0.08007263
                ],
                "xyz": [
                    5.0200149096291655,
                    6.518683125086332,
                    0.6228451605583765
                ],
                "label": "Ca",
                "properties": {}
            },
            {
                "species": [
                    {
                        "element": "La",
                        "occu": 1
                    }
                ],
                "abc": [
                    0.00282018,
                    0.65933245,
                    0.59600962
                ],
                "xyz": [
                    0.0029734216831147995,
                    5.134530256836732,
                    4.636778736704054
                ],
                "label": "La",
                "properties": {}
            },
            {
                "species": [
                    {
                        "element": "La",
                        "occu": 1
                    }
                ],
                "abc": [
                    0.99717982,
                    0.15933245,
                    0.40399038
                ],
                "xyz": [
                    5.1208403983168855,
                    1.2407963318367323,
                    3.142827643295946
                ],
                "label": "La",
                "properties": {}
            },
            {
                "species": [
                    {
                        "element": "Al",
                        "occu": 1
                    }
                ],
                "abc": [
                    0.46506767,
                    0.14214942,
                    0.09884523
                ],
                "xyz": [
                    2.390005595830182,
                    1.1069840381461469,
                    0.768940868745759
                ],
                "label": "Al",
                "properties": {}
            },
            {
                "species": [
                    {
                        "element": "Al",
                        "occu": 1
                    }
                ],
                "abc": [
                    0.53493233,
                    0.64214942,
                    0.90115477
                ],
                "xyz": [
                    2.7338082241698176,
                    5.000717963146147,
                    7.010665511254241
                ],
                "label": "Al",
                "properties": {}
            },
            {
                "species": [
                    {
                        "element": "Al",
                        "occu": 1
                    }
                ],
                "abc": [
                    0.45787919,
                    0.8543908,
                    0.38534711
                ],
                "xyz": [
                    2.3474910266010354,
                    6.6535408863357794,
                    2.9978416830821533
                ],
                "label": "Al",
                "properties": {}
            },
            {
                "species": [
                    {
                        "element": "Al",
                        "occu": 1
                    }
                ],
                "abc": [
                    0.54212081,
                    0.3543908,
                    0.61465289
                ],
                "xyz": [
                    2.7763227933989643,
                    2.75980696133578,
                    4.781764696917847
                ],
                "label": "Al",
                "properties": {}
            },
            {
                "species": [
                    {
                        "element": "Al",
                        "occu": 1
                    }
                ],
                "abc": [
                    0.50149437,
                    0.49941107,
                    0.25872738
                ],
                "xyz": [
                    2.5742606864375097,
                    3.8891476515590995,
                    2.0127732368758005
                ],
                "label": "Al",
                "properties": {}
            },
            {
                "species": [
                    {
                        "element": "Al",
                        "occu": 1
                    }
                ],
                "abc": [
                    0.49850563,
                    0.99941107,
                    0.74127262
                ],
                "xyz": [
                    2.5495531335624904,
                    7.782881576559099,
                    5.7668331431242
                ],
                "label": "Al",
                "properties": {}
            },
            {
                "species": [
                    {
                        "element": "O",
                        "occu": 1
                    }
                ],
                "abc": [
                    0.68470409,
                    0.48536106,
                    0.77103405
                ],
                "xyz": [
                    3.506626021274318,
                    3.779733650391921,
                    5.998349927574594
                ],
                "label": "O",
                "properties": {}
            },
            {
                "species": [
                    {
                        "element": "O",
                        "occu": 1
                    }
                ],
                "abc": [
                    0.31529591,
                    0.98536106,
                    0.22896595
                ],
                "xyz": [
                    1.6171877987256813,
                    7.67346757539192,
                    1.7812564524254055
                ],
                "label": "O",
                "properties": {}
            },
            {
                "species": [
                    {
                        "element": "O",
                        "occu": 1
                    }
                ],
                "abc": [
                    0.80352455,
                    0.14391651,
                    0.1132192
                ],
                "xyz": [
                    4.13046578701871,
                    1.1207451947092035,
                    0.8807327396479325
                ],
                "label": "O",
                "properties": {}
            },
            {
                "species": [
                    {
                        "element": "O",
                        "occu": 1
                    }
                ],
                "abc": [
                    0.19647545,
                    0.64391651,
                    0.8867808
                ],
                "xyz": [
                    0.9933480329812894,
                    5.014479119709204,
                    6.898873640352067
                ],
                "label": "O",
                "properties": {}
            },
            {
                "species": [
                    {
                        "element": "O",
                        "occu": 1
                    }
                ],
                "abc": [
                    0.79620378,
                    0.86317168,
                    0.39467599
                ],
                "xyz": [
                    4.087368438218651,
                    6.7219217070304875,
                    3.070384255181444
                ],
                "label": "O",
                "properties": {}
            },
            {
                "species": [
                    {
                        "element": "O",
                        "occu": 1
                    }
                ],
                "abc": [
                    0.20379622,
                    0.36317168,
                    0.60532401
                ],
                "xyz": [
                    1.0364453817813482,
                    2.8281877820304877,
                    4.709222124818555
                ],
                "label": "O",
                "properties": {}
            },
            {
                "species": [
                    {
                        "element": "O",
                        "occu": 1
                    }
                ],
                "abc": [
                    0.69643982,
                    0.15443132,
                    0.64224078
                ],
                "xyz": [
                    3.569476583394837,
                    1.202628939533062,
                    4.996375125016842
                ],
                "label": "O",
                "properties": {}
            },
            {
                "species": [
                    {
                        "element": "O",
                        "occu": 1
                    }
                ],
                "abc": [
                    0.30356018,
                    0.65443132,
                    0.35775922
                ],
                "xyz": [
                    1.5543372366051627,
                    5.096362864533062,
                    2.783231254983158
                ],
                "label": "O",
                "properties": {}
            },
            {
                "species": [
                    {
                        "element": "O",
                        "occu": 1
                    }
                ],
                "abc": [
                    0.69128119,
                    0.83176683,
                    0.82592817
                ],
                "xyz": [
                    3.539391049886603,
                    6.477357447321415,
                    6.425409338292422
                ],
                "label": "O",
                "properties": {}
            },
            {
                "species": [
                    {
                        "element": "O",
                        "occu": 1
                    }
                ],
                "abc": [
                    0.30871881,
                    0.33176683,
                    0.17407183
                ],
                "xyz": [
                    1.5844227701133968,
                    2.5836235223214157,
                    1.3541970417075777
                ],
                "label": "O",
                "properties": {}
            },
            {
                "species": [
                    {
                        "element": "O",
                        "occu": 1
                    }
                ],
                "abc": [
                    0.31747856,
                    0.10691681,
                    0.89841284
                ],
                "xyz": [
                    1.6154614828208556,
                    0.8326112204995585,
                    6.9893555478672695
                ],
                "label": "O",
                "properties": {}
            },
            {
                "species": [
                    {
                        "element": "O",
                        "occu": 1
                    }
                ],
                "abc": [
                    0.68252144,
                    0.60691681,
                    0.10158716
                ],
                "xyz": [
                    3.508352337179144,
                    4.726345145499558,
                    0.79025083213273
                ],
                "label": "O",
                "properties": {}
            },
            {
                "species": [
                    {
                        "element": "O",
                        "occu": 1
                    }
                ],
                "abc": [
                    0.29184659,
                    0.92207953,
                    0.57585884
                ],
                "xyz": [
                    1.4898727010765913,
                    7.18066469501811,
                    4.479983112091372
                ],
                "label": "O",
                "properties": {}
            },
            {
                "species": [
                    {
                        "element": "O",
                        "occu": 1
                    }
                ],
                "abc": [
                    0.70815341,
                    0.42207953,
                    0.42414116
                ],
                "xyz": [
                    3.6339411189234085,
                    3.28693077001811,
                    3.299623267908628
                ],
                "label": "O",
                "properties": {}
            }
        ]
    },
    "spacegroup": {
        "source": "spglib",
        "symbol": "P2_1",
        "number": 4,
        "point_group": "2",
        "crystal_system": "monoclinic",
        "hall": "P 2yb"
    },
    "dielectric": {
        "epsilon_ionic": [
            [
                5.32964468,
                3.68e-06,
                -0.62537203
            ],
            [
                3.68e-06,
                10.64671491,
                2.5e-06
            ],
            [
                -0.62537203,
                2.5e-06,
                14.19155841
            ]
        ],
        "epsilon_ionic_avg": 10.055972666666664,
        "epsilon_ionic_eig": [
            5.285730718325599,
            14.23547237167303,
            10.64671491000136
        ],
        "epsilon_electronic": [
            [
                3.33672905,
                0.0,
                -0.00755561
            ],
            [
                0.0,
                3.38435452,
                0.0
            ],
            [
                -0.00752431,
                0.0,
                3.36917589
            ]
        ],
        "epsilon_electronic_avg": 3.3634198200000003,
        "epsilon_electronic_eig": [
            3.3350625256631528,
            3.3708424143368476,
            3.38435452
        ]
    },
    "phonon": {
        "lowest_freq": -0.15328162487333244,
        "frequency": [
            -0.15328162487333244,
            -0.12201418688542687,
            -0.07004960061992462,
            1.6002631195093289,
            2.2424638789180986,
            2.847411684327702,
            2.9237619364698038,
            3.8596386453836593,
            3.9994159955940614,
            4.102728519627972,
            4.547117376784624,
            4.704286989454284,
            4.723567209858884,
            5.187740293572001,
            5.230348412280939,
            5.413531996831876,
            5.489856917026901,
            5.929343685713678,
            6.165238020409436,
            6.184276648302033,
            6.289564678622026,
            6.629705252361358,
            6.773374403992495,
            7.227737532722669,
            7.282898196318696,
            7.385820035946034,
            8.02952491457113,
            8.048390278162637,
            8.19359250462267,
            8.530285973431036,
            8.683588880593705,
            8.729241621758549,
            8.937955866544327,
            9.023482233015946,
            9.475519618756945,
            9.785870450865927,
            9.895502032914141,
            10.691626072982618,
            10.81456526840704,
            10.915063979718472,
            11.056521920182071,
            11.295469122506393,
            12.184627531349951,
            12.33472604154538,
            12.35122701223733,
            13.742910501056661,
            14.404891961174055,
            14.532024812356486,
            16.434546109824097,
            17.23662039027665,
            17.495590215000888,
            17.615159122208944,
            18.005116277495265,
            18.10346989523977,
            19.057499077688135,
            19.11541588511596,
            19.740968984211335,
            20.456843521273168,
            22.23390975453846,
            22.307246930033592,
            22.3132461694268,
            22.544936474389548,
            22.70359560049311,
            22.862374797934375,
            23.44020767588215,
            23.737910976938487,
            24.293454640248186,
            24.892295199931922,
            24.99843555929254,
            25.316980312644105,
            26.622635926399877,
            26.68394216293722
        ]
    },
    "born_effective_charge": {
        "avg_abs_trace": 2.315361388888889,
        "tensors": [
            [
                [
                    2.35031,
                    -0.16243,
                    0.05085
                ],
                [
                    -0.15352,
                    2.4304,
                    -0.30253
                ],
                [
                    0.04109,
                    -0.41359,
                    2.58076
                ]
            ],
            [
                [
                    2.35031,
                    0.16244,
                    0.05085
                ],
                [
                    0.15352,
                    2.4304,
                    0.30253
                ],
                [
                    0.0411,
                    0.41362,
                    2.58075
                ]
            ],
            [
                [
                    3.79804,
                    0.01255,
                    -0.17164
                ],
                [
                    0.01256,
                    4.11815,
                    -0.45361
                ],
                [
                    -0.18994,
                    -0.32851,
                    3.9223
                ]
            ],
            [
                [
                    3.798,
                    -0.01257,
                    -0.17153
                ],
                [
                    -0.01256,
                    4.11815,
                    0.45361
                ],
                [
                    -0.19003,
                    0.32845,
                    3.92203
                ]
            ],
            [
                [
                    2.57583,
                    0.02336,
                    -0.06434
                ],
                [
                    -0.03116,
                    2.2441,
                    0.03568
                ],
                [
                    0.13256,
                    0.02058,
                    2.48069
                ]
            ],
            [
                [
                    2.57584,
                    -0.02337,
                    -0.06434
                ],
                [
                    0.03116,
                    2.2441,
                    -0.03568
                ],
                [
                    0.13252,
                    -0.02056,
                    2.48067
                ]
            ],
            [
                [
                    2.72272,
                    0.01356,
                    -0.01816
                ],
                [
                    0.03368,
                    2.36762,
                    -0.00997
                ],
                [
                    -0.01303,
                    -0.01148,
                    2.19125
                ]
            ],
            [
                [
                    2.72273,
                    -0.01355,
                    -0.01815
                ],
                [
                    -0.03368,
                    2.36762,
                    0.00997
                ],
                [
                    -0.01302,
                    0.01147,
                    2.19125
                ]
            ],
            [
                [
                    2.37102,
                    -0.0412,
                    0.06973
                ],
                [
                    0.02782,
                    2.76597,
                    -0.02462
                ],
                [
                    -0.08107,
                    0.01437,
                    2.7575
                ]
            ],
            [
                [
                    2.37102,
                    0.04121,
                    0.06973
                ],
                [
                    -0.02782,
                    2.76597,
                    0.02462
                ],
                [
                    -0.08108,
                    -0.01436,
                    2.75751
                ]
            ],
            [
                [
                    -2.0478,
                    -0.0978,
                    0.15234
                ],
                [
                    -0.09544,
                    -1.96823,
                    -0.21286
                ],
                [
                    0.07692,
                    -0.20096,
                    -1.96872
                ]
            ],
            [
                [
                    -2.04781,
                    0.09782,
                    0.15231
                ],
                [
                    0.09544,
                    -1.96823,
                    0.21286
                ],
                [
                    0.0769,
                    0.20105,
                    -1.96878
                ]
            ],
            [
                [
                    -2.14603,
                    -0.03092,
                    -0.27105
                ],
                [
                    -0.03314,
                    -1.70737,
                    0.08882
                ],
                [
                    -0.23713,
                    0.08093,
                    -2.28407
                ]
            ],
            [
                [
                    -2.14603,
                    0.03094,
                    -0.27105
                ],
                [
                    0.03314,
                    -1.70737,
                    -0.08882
                ],
                [
                    -0.23709,
                    -0.08102,
                    -2.28403
                ]
            ],
            [
                [
                    -2.21601,
                    -0.04297,
                    -0.21339
                ],
                [
                    -0.05982,
                    -2.36637,
                    0.37492
                ],
                [
                    -0.15828,
                    0.35274,
                    -1.78858
                ]
            ],
            [
                [
                    -2.21605,
                    0.04294,
                    -0.21336
                ],
                [
                    0.05982,
                    -2.36637,
                    -0.37492
                ],
                [
                    -0.15836,
                    -0.35275,
                    -1.78872
                ]
            ],
            [
                [
                    -1.94359,
                    -0.10274,
                    0.52392
                ],
                [
                    -0.05224,
                    -1.99332,
                    0.12996
                ],
                [
                    0.54032,
                    0.13688,
                    -1.92904
                ]
            ],
            [
                [
                    -1.94361,
                    0.10275,
                    0.52393
                ],
                [
                    0.05224,
                    -1.99332,
                    -0.12996
                ],
                [
                    0.54037,
                    -0.13702,
                    -1.92911
                ]
            ],
            [
                [
                    -1.81099,
                    0.2025,
                    0.00671
                ],
                [
                    0.16607,
                    -2.04264,
                    0.08948
                ],
                [
                    -0.04738,
                    0.06854,
                    -1.89555
                ]
            ],
            [
                [
                    -1.81108,
                    -0.20252,
                    0.00671
                ],
                [
                    -0.16607,
                    -2.04264,
                    -0.08948
                ],
                [
                    -0.04744,
                    -0.06849,
                    -1.89553
                ]
            ],
            [
                [
                    -1.70324,
                    0.24301,
                    0.12691
                ],
                [
                    0.25542,
                    -1.78954,
                    -0.18015
                ],
                [
                    0.05805,
                    -0.19902,
                    -2.20231
                ]
            ],
            [
                [
                    -1.70324,
                    -0.243,
                    0.12689
                ],
                [
                    -0.25542,
                    -1.78954,
                    0.18015
                ],
                [
                    0.05803,
                    0.19904,
                    -2.2024
                ]
            ],
            [
                [
                    -1.95017,
                    -0.19776,
                    -0.19194
                ],
                [
                    -0.23878,
                    -2.05878,
                    0.00227
                ],
                [
                    -0.12204,
                    0.0169,
                    -1.86393
                ]
            ],
            [
                [
                    -1.95016,
                    0.19776,
                    -0.19194
                ],
                [
                    0.23878,
                    -2.05878,
                    -0.00227
                ],
                [
                    -0.12197,
                    -0.0168,
                    -1.86393
                ]
            ]
        ]
    },
    "band_gap": 4.2837,
    "is_direct": false,
    "formula": "CaLaAl3O7"
}