{
    "mp_id": "mp-12171",
    "nelements": 3,
    "nsites": 22,
    "elements": [
        "K",
        "Mg",
        "O"
    ],
    "structure": {
        "@module": "pymatgen.core.structure",
        "@class": "Structure",
        "charge": null,
        "lattice": {
            "matrix": [
                [
                    8.51653257,
                    0.0,
                    0.0
                ],
                [
                    -4.25826628,
                    7.3755334,
                    0.0
                ],
                [
                    0.0,
                    0.0,
                    6.61609936
                ]
            ],
            "a": 8.51653257,
            "b": 8.516532430860615,
            "c": 6.61609936,
            "alpha": 90.0,
            "beta": 90.0,
            "gamma": 120.00000050160045,
            "volume": 415.5834695095275
        },
        "sites": [
            {
                "species": [
                    {
                        "element": "K",
                        "occu": 1
                    }
                ],
                "abc": [
                    0.07158222,
                    0.53579061,
                    0.32143558
                ],
                "xyz": [
                    -1.6719067796407252,
                    3.9517415394613735,
                    2.1266497351192286
                ],
                "label": "K",
                "properties": {}
            },
            {
                "species": [
                    {
                        "element": "K",
                        "occu": 1
                    }
                ],
                "abc": [
                    0.53579061,
                    0.46420939,
                    0.82143558
                ],
                "xyz": [
                    2.586350988468798,
                    3.423791860538626,
                    5.434699415119229
                ],
                "label": "K",
                "properties": {}
            },
            {
                "species": [
                    {
                        "element": "K",
                        "occu": 1
                    }
                ],
                "abc": [
                    0.46420939,
                    0.92841778,
                    0.32143558
                ],
                "xyz": [
                    4.262908374297325e-06,
                    6.847576345543852,
                    2.1266497351192286
                ],
                "label": "K",
                "properties": {}
            },
            {
                "species": [
                    {
                        "element": "K",
                        "occu": 1
                    }
                ],
                "abc": [
                    0.53579061,
                    0.07158222,
                    0.82143558
                ],
                "xyz": [
                    4.258262027091626,
                    0.527957054456148,
                    5.434699415119229
                ],
                "label": "K",
                "properties": {}
            },
            {
                "species": [
                    {
                        "element": "K",
                        "occu": 1
                    }
                ],
                "abc": [
                    0.92841778,
                    0.46420939,
                    0.82143558
                ],
                "xyz": [
                    5.930173069640726,
                    3.423791860538626,
                    5.434699415119229
                ],
                "label": "K",
                "properties": {}
            },
            {
                "species": [
                    {
                        "element": "K",
                        "occu": 1
                    }
                ],
                "abc": [
                    0.46420939,
                    0.53579061,
                    0.32143558
                ],
                "xyz": [
                    1.671915301531202,
                    3.9517415394613735,
                    2.1266497351192286
                ],
                "label": "K",
                "properties": {}
            },
            {
                "species": [
                    {
                        "element": "K",
                        "occu": 1
                    }
                ],
                "abc": [
                    0.85605742,
                    0.14394258,
                    0.49774887
                ],
                "xyz": [
                    6.677695064549968,
                    1.0616533064721718,
                    3.293155980247723
                ],
                "label": "K",
                "properties": {}
            },
            {
                "species": [
                    {
                        "element": "K",
                        "occu": 1
                    }
                ],
                "abc": [
                    0.71211485,
                    0.85605742,
                    0.99774887
                ],
                "xyz": [
                    2.4194288682758676,
                    6.313880093527827,
                    6.601205660247723
                ],
                "label": "K",
                "properties": {}
            },
            {
                "species": [
                    {
                        "element": "K",
                        "occu": 1
                    }
                ],
                "abc": [
                    0.14394258,
                    0.28788515,
                    0.99774887
                ],
                "xyz": [
                    4.402208864107138e-08,
                    2.12330653918901,
                    6.601205660247723
                ],
                "label": "K",
                "properties": {}
            },
            {
                "species": [
                    {
                        "element": "K",
                        "occu": 1
                    }
                ],
                "abc": [
                    0.85605742,
                    0.71211485,
                    0.49774887
                ],
                "xyz": [
                    4.258266245977913,
                    5.25222686081099,
                    3.293155980247723
                ],
                "label": "K",
                "properties": {}
            },
            {
                "species": [
                    {
                        "element": "K",
                        "occu": 1
                    }
                ],
                "abc": [
                    0.28788515,
                    0.14394258,
                    0.49774887
                ],
                "xyz": [
                    1.838837421724133,
                    1.0616533064721718,
                    3.293155980247723
                ],
                "label": "K",
                "properties": {}
            },
            {
                "species": [
                    {
                        "element": "K",
                        "occu": 1
                    }
                ],
                "abc": [
                    0.14394258,
                    0.85605742,
                    0.99774887
                ],
                "xyz": [
                    -2.4194287745499667,
                    6.313880093527827,
                    6.601205660247723
                ],
                "label": "K",
                "properties": {}
            },
            {
                "species": [
                    {
                        "element": "Mg",
                        "occu": 1
                    }
                ],
                "abc": [
                    0.333333,
                    0.666667,
                    0.71654061
                ],
                "xyz": [
                    -4.254932949976364e-06,
                    4.9170247251778,
                    4.740703871235009
                ],
                "label": "Mg",
                "properties": {}
            },
            {
                "species": [
                    {
                        "element": "Mg",
                        "occu": 1
                    }
                ],
                "abc": [
                    0.666667,
                    0.333333,
                    0.21654061
                ],
                "xyz": [
                    4.25827054493295,
                    2.4585086748222,
                    1.4326541912350095
                ],
                "label": "Mg",
                "properties": {}
            },
            {
                "species": [
                    {
                        "element": "O",
                        "occu": 1
                    }
                ],
                "abc": [
                    0.333333,
                    0.666667,
                    0.02099883
                ],
                "xyz": [
                    -4.254932949976364e-06,
                    4.9170247251778,
                    0.1389303457237488
                ],
                "label": "O",
                "properties": {}
            },
            {
                "species": [
                    {
                        "element": "O",
                        "occu": 1
                    }
                ],
                "abc": [
                    0.666667,
                    0.333333,
                    0.52099883
                ],
                "xyz": [
                    4.25827054493295,
                    2.4585086748222,
                    3.446980025723749
                ],
                "label": "O",
                "properties": {}
            },
            {
                "species": [
                    {
                        "element": "O",
                        "occu": 1
                    }
                ],
                "abc": [
                    0.79813458,
                    0.20186542,
                    0.11690241
                ],
                "xyz": [
                    5.937742434729234,
                    1.4888651475150279,
                    0.7734379599834575
                ],
                "label": "O",
                "properties": {}
            },
            {
                "species": [
                    {
                        "element": "O",
                        "occu": 1
                    }
                ],
                "abc": [
                    0.59626817,
                    0.79813458,
                    0.61690241
                ],
                "xyz": [
                    1.6794677213433347,
                    5.886668252484973,
                    4.081487639983457
                ],
                "label": "O",
                "properties": {}
            },
            {
                "species": [
                    {
                        "element": "O",
                        "occu": 1
                    }
                ],
                "abc": [
                    0.20186542,
                    0.40373183,
                    0.61690241
                ],
                "xyz": [
                    -4.213664962948727e-06,
                    2.9777375968081223,
                    4.081487639983457
                ],
                "label": "O",
                "properties": {}
            },
            {
                "species": [
                    {
                        "element": "O",
                        "occu": 1
                    }
                ],
                "abc": [
                    0.79813458,
                    0.59626817,
                    0.11690241
                ],
                "xyz": [
                    4.258270503664964,
                    4.397795803191878,
                    0.7734379599834575
                ],
                "label": "O",
                "properties": {}
            },
            {
                "species": [
                    {
                        "element": "O",
                        "occu": 1
                    }
                ],
                "abc": [
                    0.40373183,
                    0.20186542,
                    0.11690241
                ],
                "xyz": [
                    2.5787985686566657,
                    1.4888651475150279,
                    0.7734379599834575
                ],
                "label": "O",
                "properties": {}
            },
            {
                "species": [
                    {
                        "element": "O",
                        "occu": 1
                    }
                ],
                "abc": [
                    0.20186542,
                    0.79813458,
                    0.61690241
                ],
                "xyz": [
                    -1.6794761447292332,
                    5.886668252484973,
                    4.081487639983457
                ],
                "label": "O",
                "properties": {}
            }
        ]
    },
    "spacegroup": {
        "source": "spglib",
        "symbol": "P6_3mc",
        "number": 186,
        "point_group": "6mm",
        "crystal_system": "hexagonal",
        "hall": "P 6c -2c"
    },
    "dielectric": {
        "epsilon_ionic": [
            [
                5.82286291,
                2.6e-07,
                9.962e-05
            ],
            [
                2.6e-07,
                5.82248455,
                -0.00032645
            ],
            [
                9.962e-05,
                -0.00032645,
                5.22995054
            ]
        ],
        "epsilon_ionic_avg": 5.625099333333332,
        "epsilon_ionic_eig": [
            5.229950343408069,
            5.822862926849244,
            5.822484729742684
        ],
        "epsilon_electronic": [
            [
                3.21495898,
                2.2e-07,
                -0.0
            ],
            [
                2.2e-07,
                3.21495817,
                0.0
            ],
            [
                0.0,
                0.0,
                3.26728917
            ]
        ],
        "epsilon_electronic_avg": 3.2324021066666666,
        "epsilon_electronic_eig": [
            3.2149590358958666,
            3.2149581141041335,
            3.26728917
        ]
    },
    "phonon": {
        "lowest_freq": -0.07930495578551086,
        "frequency": [
            -0.07930495578551086,
            -0.07930494438293781,
            -0.04753635948741961,
            2.2656247329242873,
            2.685750352039499,
            2.685750493087677,
            2.807367177317395,
            2.8073672469627566,
            2.9335260573895656,
            2.933526199021242,
            3.1783028326730554,
            3.3098915417100447,
            3.3098918961387485,
            3.339399798417779,
            3.4940664958373424,
            3.4940666077528437,
            3.666692903897226,
            3.666692940556983,
            3.772070072971863,
            3.772070160441122,
            3.8477527136235112,
            4.129549622307569,
            4.150666290865162,
            4.413995975546489,
            4.43101815638609,
            4.431018365981366,
            4.8190602561360585,
            5.104080017294921,
            5.104080208828068,
            5.186417857883531,
            5.285293898899827,
            5.285294245711369,
            5.287270771219003,
            5.52022694262066,
            5.520227496040206,
            5.777873570661233,
            5.84879629017472,
            5.848796937863857,
            6.07883190935525,
            6.07883235161149,
            6.2451794805109895,
            6.4218400241928455,
            6.512792728572083,
            6.512793347753768,
            6.546059165891053,
            6.6457220678213,
            6.6457227113935184,
            6.895377395836122,
            7.915518395114607,
            7.915518518618902,
            8.453992537335214,
            8.453992840884256,
            9.073188697280644,
            9.0731890474554,
            10.022625216588224,
            10.453456596818729,
            10.66124804375518,
            10.66124838761754,
            12.191855489927546,
            12.191857153760385,
            12.474056370913633,
            12.474057752197139,
            12.652760178479344,
            12.788366502681107,
            13.350417445195474,
            13.518448291573911
        ]
    },
    "born_effective_charge": {
        "avg_abs_trace": 1.4563765151515151,
        "tensors": [
            [
                [
                    1.07985,
                    0.11017,
                    0.04341
                ],
                [
                    0.1099,
                    0.95271,
                    0.0249
                ],
                [
                    0.06535,
                    0.03773,
                    1.17056
                ]
            ],
            [
                [
                    1.07985,
                    -0.11017,
                    0.04341
                ],
                [
                    -0.10983,
                    0.95285,
                    -0.02517
                ],
                [
                    0.06535,
                    -0.03773,
                    1.17056
                ]
            ],
            [
                [
                    0.88931,
                    -9e-05,
                    -0.0001
                ],
                [
                    0.0,
                    1.14339,
                    -0.04999
                ],
                [
                    -0.0,
                    -0.07546,
                    1.17056
                ]
            ],
            [
                [
                    0.88931,
                    9e-05,
                    -0.0001
                ],
                [
                    0.0,
                    1.14331,
                    0.04972
                ],
                [
                    0.0,
                    0.07546,
                    1.17056
                ]
            ],
            [
                [
                    1.07991,
                    0.11007,
                    -0.04333
                ],
                [
                    0.10983,
                    0.95285,
                    -0.02517
                ],
                [
                    -0.06535,
                    -0.03773,
                    1.17056
                ]
            ],
            [
                [
                    1.07991,
                    -0.11007,
                    -0.04333
                ],
                [
                    -0.1099,
                    0.95271,
                    0.0249
                ],
                [
                    -0.06535,
                    0.03773,
                    1.17056
                ]
            ],
            [
                [
                    1.04805,
                    0.03788,
                    0.03913
                ],
                [
                    0.0377,
                    1.09153,
                    -0.02264
                ],
                [
                    0.03846,
                    -0.02221,
                    1.04902
                ]
            ],
            [
                [
                    1.04805,
                    -0.03788,
                    0.03913
                ],
                [
                    -0.03763,
                    1.09148,
                    0.02259
                ],
                [
                    0.03846,
                    0.02221,
                    1.04902
                ]
            ],
            [
                [
                    1.11342,
                    -3e-05,
                    0.00016
                ],
                [
                    0.0,
                    1.0262,
                    -0.04518
                ],
                [
                    -0.0,
                    -0.04441,
                    1.04902
                ]
            ],
            [
                [
                    1.11342,
                    3e-05,
                    0.00016
                ],
                [
                    0.0,
                    1.02615,
                    0.04513
                ],
                [
                    0.0,
                    0.04441,
                    1.04902
                ]
            ],
            [
                [
                    1.04795,
                    -0.03774,
                    -0.03913
                ],
                [
                    -0.0377,
                    1.09153,
                    -0.02264
                ],
                [
                    -0.03846,
                    -0.02221,
                    1.04902
                ]
            ],
            [
                [
                    1.04795,
                    0.03774,
                    -0.03913
                ],
                [
                    0.03763,
                    1.09148,
                    0.02259
                ],
                [
                    -0.03846,
                    0.02221,
                    1.04902
                ]
            ],
            [
                [
                    1.66209,
                    -0.0002,
                    1e-05
                ],
                [
                    0.0,
                    1.66221,
                    4e-05
                ],
                [
                    0.0,
                    -0.0,
                    1.53046
                ]
            ],
            [
                [
                    1.66209,
                    0.0002,
                    1e-05
                ],
                [
                    0.0,
                    1.66248,
                    0.00016
                ],
                [
                    0.0,
                    -0.0,
                    1.53046
                ]
            ],
            [
                [
                    -1.87699,
                    0.00019,
                    8e-05
                ],
                [
                    -0.0,
                    -1.87684,
                    0.0003
                ],
                [
                    0.0,
                    -0.0,
                    -2.18938
                ]
            ],
            [
                [
                    -1.87699,
                    -0.00019,
                    8e-05
                ],
                [
                    -0.0,
                    -1.87711,
                    -3e-05
                ],
                [
                    0.0,
                    -0.0,
                    -2.18938
                ]
            ],
            [
                [
                    -2.01634,
                    0.00282,
                    0.09195
                ],
                [
                    0.00279,
                    -2.01288,
                    -0.05306
                ],
                [
                    0.08324,
                    -0.04806,
                    -1.99994
                ]
            ],
            [
                [
                    -2.01634,
                    -0.00282,
                    0.09195
                ],
                [
                    -0.00267,
                    -2.0128,
                    0.05318
                ],
                [
                    0.08324,
                    0.04806,
                    -1.99994
                ]
            ],
            [
                [
                    -2.01123,
                    0.00019,
                    -7e-05
                ],
                [
                    -0.0,
                    -2.01785,
                    -0.10607
                ],
                [
                    -0.0,
                    -0.09611,
                    -1.99994
                ]
            ],
            [
                [
                    -2.01123,
                    -0.00019,
                    -7e-05
                ],
                [
                    -0.0,
                    -2.01771,
                    0.10632
                ],
                [
                    0.0,
                    0.09611,
                    -1.99994
                ]
            ],
            [
                [
                    -2.01601,
                    -0.00306,
                    -0.09211
                ],
                [
                    -0.00279,
                    -2.01288,
                    -0.05306
                ],
                [
                    -0.08324,
                    -0.04806,
                    -1.99994
                ]
            ],
            [
                [
                    -2.01601,
                    0.00306,
                    -0.09211
                ],
                [
                    0.00267,
                    -2.0128,
                    0.05318
                ],
                [
                    -0.08324,
                    0.04806,
                    -1.99994
                ]
            ]
        ]
    },
    "band_gap": 1.7323,
    "is_direct": true,
    "formula": "K6MgO4"
}