{
    "mp_id": "mp-1201301",
    "nelements": 3,
    "nsites": 36,
    "elements": [
        "Hf",
        "K",
        "O"
    ],
    "structure": {
        "@module": "pymatgen.core.structure",
        "@class": "Structure",
        "charge": null,
        "lattice": {
            "matrix": [
                [
                    5.87905111,
                    0.0,
                    0.0
                ],
                [
                    0.0,
                    10.75309503,
                    0.0
                ],
                [
                    0.0,
                    0.0,
                    8.76741972
                ]
            ],
            "a": 5.87905111,
            "b": 10.75309503,
            "c": 8.76741972,
            "alpha": 90.0,
            "beta": 90.0,
            "gamma": 90.0,
            "volume": 554.2586984070991
        },
        "sites": [
            {
                "species": [
                    {
                        "element": "K",
                        "occu": 1
                    }
                ],
                "abc": [
                    0.43031507,
                    0.66639308,
                    0.07442204
                ],
                "xyz": [
                    2.529844289933228,
                    7.165788116574393,
                    0.6524892610986287
                ],
                "label": "K",
                "properties": {}
            },
            {
                "species": [
                    {
                        "element": "K",
                        "occu": 1
                    }
                ],
                "abc": [
                    0.06968493,
                    0.33360692,
                    0.07442204
                ],
                "xyz": [
                    0.4096812650667723,
                    3.5873069134256075,
                    0.6524892610986287
                ],
                "label": "K",
                "properties": {}
            },
            {
                "species": [
                    {
                        "element": "K",
                        "occu": 1
                    }
                ],
                "abc": [
                    0.43031507,
                    0.83360692,
                    0.42557796
                ],
                "xyz": [
                    2.529844289933228,
                    8.96385442842561,
                    3.7312205989013707
                ],
                "label": "K",
                "properties": {}
            },
            {
                "species": [
                    {
                        "element": "K",
                        "occu": 1
                    }
                ],
                "abc": [
                    0.06968493,
                    0.16639308,
                    0.42557796
                ],
                "xyz": [
                    0.4096812650667723,
                    1.7892406015743925,
                    3.7312205989013707
                ],
                "label": "K",
                "properties": {}
            },
            {
                "species": [
                    {
                        "element": "K",
                        "occu": 1
                    }
                ],
                "abc": [
                    0.56968493,
                    0.33360692,
                    0.92557796
                ],
                "xyz": [
                    3.349206820066772,
                    3.5873069134256075,
                    8.114930458901371
                ],
                "label": "K",
                "properties": {}
            },
            {
                "species": [
                    {
                        "element": "K",
                        "occu": 1
                    }
                ],
                "abc": [
                    0.93031507,
                    0.66639308,
                    0.92557796
                ],
                "xyz": [
                    5.469369844933228,
                    7.165788116574393,
                    8.114930458901371
                ],
                "label": "K",
                "properties": {}
            },
            {
                "species": [
                    {
                        "element": "K",
                        "occu": 1
                    }
                ],
                "abc": [
                    0.56968493,
                    0.16639308,
                    0.57442204
                ],
                "xyz": [
                    3.349206820066772,
                    1.7892406015743925,
                    5.036199121098628
                ],
                "label": "K",
                "properties": {}
            },
            {
                "species": [
                    {
                        "element": "K",
                        "occu": 1
                    }
                ],
                "abc": [
                    0.93031507,
                    0.83360692,
                    0.57442204
                ],
                "xyz": [
                    5.469369844933228,
                    8.96385442842561,
                    5.036199121098628
                ],
                "label": "K",
                "properties": {}
            },
            {
                "species": [
                    {
                        "element": "Hf",
                        "occu": 1
                    }
                ],
                "abc": [
                    0.9661246,
                    0.92484993,
                    0.15932488
                ],
                "xyz": [
                    5.6798959020283055,
                    9.94499918577885,
                    1.3968680947986336
                ],
                "label": "Hf",
                "properties": {}
            },
            {
                "species": [
                    {
                        "element": "Hf",
                        "occu": 1
                    }
                ],
                "abc": [
                    0.5338754,
                    0.07515007,
                    0.15932488
                ],
                "xyz": [
                    3.1386807629716937,
                    0.8080958442211521,
                    1.3968680947986336
                ],
                "label": "Hf",
                "properties": {}
            },
            {
                "species": [
                    {
                        "element": "Hf",
                        "occu": 1
                    }
                ],
                "abc": [
                    0.9661246,
                    0.57515007,
                    0.34067512
                ],
                "xyz": [
                    5.6798959020283055,
                    6.184643359221152,
                    2.9868417652013663
                ],
                "label": "Hf",
                "properties": {}
            },
            {
                "species": [
                    {
                        "element": "Hf",
                        "occu": 1
                    }
                ],
                "abc": [
                    0.5338754,
                    0.42484993,
                    0.34067512
                ],
                "xyz": [
                    3.1386807629716937,
                    4.568451670778848,
                    2.9868417652013663
                ],
                "label": "Hf",
                "properties": {}
            },
            {
                "species": [
                    {
                        "element": "Hf",
                        "occu": 1
                    }
                ],
                "abc": [
                    0.0338754,
                    0.07515007,
                    0.84067512
                ],
                "xyz": [
                    0.199155207971694,
                    0.8080958442211521,
                    7.370551625201366
                ],
                "label": "Hf",
                "properties": {}
            },
            {
                "species": [
                    {
                        "element": "Hf",
                        "occu": 1
                    }
                ],
                "abc": [
                    0.4661246,
                    0.92484993,
                    0.84067512
                ],
                "xyz": [
                    2.740370347028306,
                    9.94499918577885,
                    7.370551625201366
                ],
                "label": "Hf",
                "properties": {}
            },
            {
                "species": [
                    {
                        "element": "Hf",
                        "occu": 1
                    }
                ],
                "abc": [
                    0.0338754,
                    0.42484993,
                    0.65932488
                ],
                "xyz": [
                    0.199155207971694,
                    4.568451670778848,
                    5.780577954798633
                ],
                "label": "Hf",
                "properties": {}
            },
            {
                "species": [
                    {
                        "element": "Hf",
                        "occu": 1
                    }
                ],
                "abc": [
                    0.4661246,
                    0.57515007,
                    0.65932488
                ],
                "xyz": [
                    2.740370347028306,
                    6.184643359221152,
                    5.780577954798633
                ],
                "label": "Hf",
                "properties": {}
            },
            {
                "species": [
                    {
                        "element": "O",
                        "occu": 1
                    }
                ],
                "abc": [
                    0.1289241,
                    0.60605937,
                    0.55221328
                ],
                "xyz": [
                    0.757951373210751,
                    6.517013999431931,
                    4.841485600717881
                ],
                "label": "O",
                "properties": {}
            },
            {
                "species": [
                    {
                        "element": "O",
                        "occu": 1
                    }
                ],
                "abc": [
                    0.3710759,
                    0.39394063,
                    0.55221328
                ],
                "xyz": [
                    2.181574181789249,
                    4.236081030568069,
                    4.841485600717881
                ],
                "label": "O",
                "properties": {}
            },
            {
                "species": [
                    {
                        "element": "O",
                        "occu": 1
                    }
                ],
                "abc": [
                    0.1289241,
                    0.89394063,
                    0.94778672
                ],
                "xyz": [
                    0.757951373210751,
                    9.61262854556807,
                    8.309643979282118
                ],
                "label": "O",
                "properties": {}
            },
            {
                "species": [
                    {
                        "element": "O",
                        "occu": 1
                    }
                ],
                "abc": [
                    0.3710759,
                    0.10605937,
                    0.94778672
                ],
                "xyz": [
                    2.181574181789249,
                    1.1404664844319312,
                    8.309643979282118
                ],
                "label": "O",
                "properties": {}
            },
            {
                "species": [
                    {
                        "element": "O",
                        "occu": 1
                    }
                ],
                "abc": [
                    0.8710759,
                    0.39394063,
                    0.44778672
                ],
                "xyz": [
                    5.121099736789249,
                    4.236081030568069,
                    3.925934119282118
                ],
                "label": "O",
                "properties": {}
            },
            {
                "species": [
                    {
                        "element": "O",
                        "occu": 1
                    }
                ],
                "abc": [
                    0.6289241,
                    0.60605937,
                    0.44778672
                ],
                "xyz": [
                    3.697476928210751,
                    6.517013999431931,
                    3.925934119282118
                ],
                "label": "O",
                "properties": {}
            },
            {
                "species": [
                    {
                        "element": "O",
                        "occu": 1
                    }
                ],
                "abc": [
                    0.8710759,
                    0.10605937,
                    0.05221328
                ],
                "xyz": [
                    5.121099736789249,
                    1.1404664844319312,
                    0.4577757407178816
                ],
                "label": "O",
                "properties": {}
            },
            {
                "species": [
                    {
                        "element": "O",
                        "occu": 1
                    }
                ],
                "abc": [
                    0.6289241,
                    0.89394063,
                    0.05221328
                ],
                "xyz": [
                    3.697476928210751,
                    9.61262854556807,
                    0.4577757407178816
                ],
                "label": "O",
                "properties": {}
            },
            {
                "species": [
                    {
                        "element": "O",
                        "occu": 1
                    }
                ],
                "abc": [
                    0.25,
                    0.0,
                    0.25496427
                ],
                "xyz": [
                    1.4697627775,
                    0.0,
                    2.2353787686934043
                ],
                "label": "O",
                "properties": {}
            },
            {
                "species": [
                    {
                        "element": "O",
                        "occu": 1
                    }
                ],
                "abc": [
                    0.25,
                    0.5,
                    0.24503573
                ],
                "xyz": [
                    1.4697627775,
                    5.376547515,
                    2.1483310913065954
                ],
                "label": "O",
                "properties": {}
            },
            {
                "species": [
                    {
                        "element": "O",
                        "occu": 1
                    }
                ],
                "abc": [
                    0.75,
                    0.0,
                    0.74503573
                ],
                "xyz": [
                    4.4092883325,
                    0.0,
                    6.532040951306596
                ],
                "label": "O",
                "properties": {}
            },
            {
                "species": [
                    {
                        "element": "O",
                        "occu": 1
                    }
                ],
                "abc": [
                    0.75,
                    0.5,
                    0.75496427
                ],
                "xyz": [
                    4.4092883325,
                    5.376547515,
                    6.619088628693404
                ],
                "label": "O",
                "properties": {}
            },
            {
                "species": [
                    {
                        "element": "O",
                        "occu": 1
                    }
                ],
                "abc": [
                    0.25,
                    0.0,
                    0.67400599
                ],
                "xyz": [
                    1.4697627775,
                    0.0,
                    5.909293408124123
                ],
                "label": "O",
                "properties": {}
            },
            {
                "species": [
                    {
                        "element": "O",
                        "occu": 1
                    }
                ],
                "abc": [
                    0.25,
                    0.5,
                    0.82599401
                ],
                "xyz": [
                    1.4697627775,
                    5.376547515,
                    7.241836171875876
                ],
                "label": "O",
                "properties": {}
            },
            {
                "species": [
                    {
                        "element": "O",
                        "occu": 1
                    }
                ],
                "abc": [
                    0.75,
                    0.0,
                    0.32599401
                ],
                "xyz": [
                    4.4092883325,
                    0.0,
                    2.858126311875877
                ],
                "label": "O",
                "properties": {}
            },
            {
                "species": [
                    {
                        "element": "O",
                        "occu": 1
                    }
                ],
                "abc": [
                    0.75,
                    0.5,
                    0.17400599
                ],
                "xyz": [
                    4.4092883325,
                    5.376547515,
                    1.5255835481241227
                ],
                "label": "O",
                "properties": {}
            },
            {
                "species": [
                    {
                        "element": "O",
                        "occu": 1
                    }
                ],
                "abc": [
                    0.00845861,
                    0.75,
                    0.25
                ],
                "xyz": [
                    0.049728600509557096,
                    8.064821272500001,
                    2.19185493
                ],
                "label": "O",
                "properties": {}
            },
            {
                "species": [
                    {
                        "element": "O",
                        "occu": 1
                    }
                ],
                "abc": [
                    0.49154139,
                    0.25,
                    0.25
                ],
                "xyz": [
                    2.8897969544904427,
                    2.6882737575,
                    2.19185493
                ],
                "label": "O",
                "properties": {}
            },
            {
                "species": [
                    {
                        "element": "O",
                        "occu": 1
                    }
                ],
                "abc": [
                    0.99154139,
                    0.25,
                    0.75
                ],
                "xyz": [
                    5.829322509490442,
                    2.6882737575,
                    6.57556479
                ],
                "label": "O",
                "properties": {}
            },
            {
                "species": [
                    {
                        "element": "O",
                        "occu": 1
                    }
                ],
                "abc": [
                    0.50845861,
                    0.75,
                    0.75
                ],
                "xyz": [
                    2.989254155509557,
                    8.064821272500001,
                    6.57556479
                ],
                "label": "O",
                "properties": {}
            }
        ]
    },
    "spacegroup": {
        "source": "spglib",
        "symbol": "Pnna",
        "number": 52,
        "point_group": "mmm",
        "crystal_system": "orthorhombic",
        "hall": "-P 2a 2bc"
    },
    "dielectric": {
        "epsilon_ionic": [
            [
                13.74788464,
                -0.0,
                0.0
            ],
            [
                -0.0,
                8.02284867,
                1e-08
            ],
            [
                0.0,
                1e-08,
                12.00468152
            ]
        ],
        "epsilon_ionic_avg": 11.25847161,
        "epsilon_ionic_eig": [
            12.00468152,
            8.02284867,
            13.74788464
        ],
        "epsilon_electronic": [
            [
                3.66607548,
                0.0,
                0.0
            ],
            [
                0.0,
                3.43703969,
                0.0
            ],
            [
                0.0,
                0.0,
                3.34751938
            ]
        ],
        "epsilon_electronic_avg": 3.48354485,
        "epsilon_electronic_eig": [
            3.66607548,
            3.43703969,
            3.34751938
        ]
    },
    "phonon": {
        "lowest_freq": -0.05735451230958423,
        "frequency": [
            -0.05735451230958423,
            -0.03574285129638888,
            -0.031430178409987346,
            1.2771221901605763,
            1.603160407848386,
            1.6194786776278056,
            1.84311632894328,
            1.9851241180120558,
            1.9958570303830254,
            2.2242907103527383,
            2.2538002154009855,
            2.400519214334764,
            2.5444288942194047,
            2.577957670516263,
            2.7712677524025753,
            2.851406718111007,
            2.942007826539843,
            3.0215043569506346,
            3.0277576103600135,
            3.129188314817771,
            3.1682254049902507,
            3.3150693799451174,
            3.403220525060268,
            3.7194263443085864,
            3.958073636266496,
            3.9691593737470248,
            4.284534158101577,
            4.435206257087803,
            4.487622806704336,
            4.508334346718785,
            4.542200666706108,
            4.640565078804638,
            4.744931851421432,
            4.897704730474593,
            5.036809503893688,
            5.2067102027271135,
            5.334602016620602,
            5.3591568303729975,
            5.642435780086836,
            5.7550140205891935,
            5.779279978828333,
            5.8231743310282535,
            5.981464785747946,
            6.06867305662747,
            6.156963162166225,
            6.428673235990773,
            6.4654580570751214,
            6.510666561823867,
            6.672412849927489,
            6.8115652918584235,
            6.830884125717145,
            6.930484677713347,
            7.21720988048383,
            7.262537729932289,
            7.720073847064502,
            7.919509418327734,
            7.979363456811535,
            8.050775124686368,
            8.214563840962278,
            8.329943196428761,
            8.365369105005053,
            8.652682884808245,
            8.87542361150735,
            9.189112571128511,
            9.349772999517452,
            9.36434057722717,
            10.285006513203662,
            10.323458107570373,
            10.329309517027017,
            10.360971779172916,
            10.563924707932468,
            10.991929433927403,
            11.593104904623797,
            11.80464044039976,
            12.118073922219509,
            12.20224487733141,
            12.331367975137095,
            12.376751597750756,
            12.47351677697562,
            12.567510353907155,
            12.78742368722995,
            13.216543592605806,
            13.232255907770163,
            13.241505318504858,
            13.297887039955983,
            13.693559569985743,
            13.74422645143423,
            13.95637599196913,
            14.050421784002488,
            14.238224865986941,
            15.277868191234841,
            15.290701525440163,
            15.466267419536468,
            15.649568898626105,
            15.855445024113429,
            16.01719803963817,
            16.851221578568598,
            16.970339032925093,
            17.259423553800847,
            17.988364842583664,
            18.060979374705564,
            19.774531998122576,
            20.694859325177035,
            21.024443041535346,
            21.89932965587457,
            22.059820030145737,
            22.290926689532206,
            22.861153960620793
        ]
    },
    "born_effective_charge": {
        "avg_abs_trace": 2.6040642592592596,
        "tensors": [
            [
                [
                    1.09963,
                    -0.00794,
                    -0.01178
                ],
                [
                    0.00151,
                    1.30376,
                    -0.13822
                ],
                [
                    0.01214,
                    -0.18582,
                    1.25752
                ]
            ],
            [
                [
                    1.09964,
                    -0.00795,
                    0.01176
                ],
                [
                    0.00151,
                    1.30377,
                    0.13822
                ],
                [
                    -0.01214,
                    0.18582,
                    1.25752
                ]
            ],
            [
                [
                    1.09963,
                    0.00794,
                    0.01178
                ],
                [
                    -0.00151,
                    1.30377,
                    -0.13822
                ],
                [
                    -0.01221,
                    -0.18582,
                    1.25744
                ]
            ],
            [
                [
                    1.09964,
                    0.00795,
                    -0.01176
                ],
                [
                    -0.00151,
                    1.30376,
                    0.13822
                ],
                [
                    0.01221,
                    0.18582,
                    1.25744
                ]
            ],
            [
                [
                    1.09964,
                    -0.00795,
                    -0.01176
                ],
                [
                    0.00151,
                    1.30377,
                    -0.13822
                ],
                [
                    0.01221,
                    -0.18582,
                    1.25744
                ]
            ],
            [
                [
                    1.09963,
                    -0.00794,
                    0.01178
                ],
                [
                    0.00151,
                    1.30376,
                    0.13822
                ],
                [
                    -0.01221,
                    0.18582,
                    1.25744
                ]
            ],
            [
                [
                    1.09964,
                    0.00795,
                    0.01176
                ],
                [
                    -0.00151,
                    1.30376,
                    -0.13822
                ],
                [
                    -0.01214,
                    -0.18582,
                    1.25752
                ]
            ],
            [
                [
                    1.09963,
                    0.00794,
                    -0.01178
                ],
                [
                    -0.00151,
                    1.30377,
                    0.13822
                ],
                [
                    0.01214,
                    0.18582,
                    1.25752
                ]
            ],
            [
                [
                    5.34349,
                    -0.02269,
                    -0.14114
                ],
                [
                    -0.18977,
                    4.4171,
                    -0.3901
                ],
                [
                    0.15949,
                    -0.61206,
                    4.15594
                ]
            ],
            [
                [
                    5.34367,
                    -0.02233,
                    0.14102
                ],
                [
                    -0.18976,
                    4.41707,
                    0.39008
                ],
                [
                    -0.15949,
                    0.61206,
                    4.15594
                ]
            ],
            [
                [
                    5.34349,
                    0.02269,
                    0.14114
                ],
                [
                    0.18976,
                    4.41707,
                    -0.39008
                ],
                [
                    -0.15952,
                    -0.61204,
                    4.15584
                ]
            ],
            [
                [
                    5.34367,
                    0.02233,
                    -0.14102
                ],
                [
                    0.18977,
                    4.4171,
                    0.3901
                ],
                [
                    0.15952,
                    0.61204,
                    4.15584
                ]
            ],
            [
                [
                    5.34367,
                    -0.02233,
                    -0.14102
                ],
                [
                    -0.18976,
                    4.41707,
                    -0.39008
                ],
                [
                    0.15952,
                    -0.61204,
                    4.15584
                ]
            ],
            [
                [
                    5.34349,
                    -0.02269,
                    0.14114
                ],
                [
                    -0.18977,
                    4.4171,
                    0.3901
                ],
                [
                    -0.15952,
                    0.61204,
                    4.15584
                ]
            ],
            [
                [
                    5.34367,
                    0.02233,
                    0.14102
                ],
                [
                    0.18977,
                    4.4171,
                    -0.3901
                ],
                [
                    -0.15949,
                    -0.61206,
                    4.15594
                ]
            ],
            [
                [
                    5.34349,
                    0.02269,
                    -0.14114
                ],
                [
                    0.18976,
                    4.41707,
                    0.39008
                ],
                [
                    0.15949,
                    0.61206,
                    4.15594
                ]
            ],
            [
                [
                    -2.63704,
                    -0.12125,
                    -0.91729
                ],
                [
                    -0.11611,
                    -1.94074,
                    0.25721
                ],
                [
                    -0.63616,
                    0.21816,
                    -2.38325
                ]
            ],
            [
                [
                    -2.63719,
                    -0.12138,
                    0.917
                ],
                [
                    -0.11604,
                    -1.94076,
                    -0.25726
                ],
                [
                    0.63616,
                    -0.21816,
                    -2.38325
                ]
            ],
            [
                [
                    -2.63704,
                    0.12125,
                    0.91729
                ],
                [
                    0.11604,
                    -1.94076,
                    0.25726
                ],
                [
                    0.63614,
                    0.21813,
                    -2.38302
                ]
            ],
            [
                [
                    -2.63719,
                    0.12138,
                    -0.917
                ],
                [
                    0.11611,
                    -1.94074,
                    -0.25721
                ],
                [
                    -0.63614,
                    -0.21813,
                    -2.38302
                ]
            ],
            [
                [
                    -2.63719,
                    -0.12138,
                    -0.917
                ],
                [
                    -0.11604,
                    -1.94076,
                    0.25726
                ],
                [
                    -0.63614,
                    0.21813,
                    -2.38302
                ]
            ],
            [
                [
                    -2.63704,
                    -0.12125,
                    0.91729
                ],
                [
                    -0.11611,
                    -1.94074,
                    -0.25721
                ],
                [
                    0.63614,
                    -0.21813,
                    -2.38302
                ]
            ],
            [
                [
                    -2.63719,
                    0.12138,
                    0.917
                ],
                [
                    0.11611,
                    -1.94074,
                    0.25721
                ],
                [
                    0.63616,
                    0.21816,
                    -2.38325
                ]
            ],
            [
                [
                    -2.63704,
                    0.12125,
                    -0.91729
                ],
                [
                    0.11604,
                    -1.94076,
                    -0.25726
                ],
                [
                    -0.63616,
                    -0.21816,
                    -2.38325
                ]
            ],
            [
                [
                    -3.64173,
                    -1.09147,
                    0.00015
                ],
                [
                    -0.7844,
                    -1.74994,
                    -0.00015
                ],
                [
                    -0.0,
                    -0.0,
                    -1.70457
                ]
            ],
            [
                [
                    -3.64173,
                    1.09147,
                    -0.00015
                ],
                [
                    0.7844,
                    -1.74994,
                    0.00015
                ],
                [
                    -0.0,
                    -0.0,
                    -1.70429
                ]
            ],
            [
                [
                    -3.64173,
                    -1.09147,
                    -0.00015
                ],
                [
                    -0.7844,
                    -1.74994,
                    0.00015
                ],
                [
                    -0.0,
                    -0.0,
                    -1.70429
                ]
            ],
            [
                [
                    -3.64173,
                    1.09147,
                    0.00015
                ],
                [
                    0.7844,
                    -1.74994,
                    -0.00015
                ],
                [
                    -0.0,
                    -0.0,
                    -1.70457
                ]
            ],
            [
                [
                    -2.6014,
                    0.61606,
                    1e-05
                ],
                [
                    0.45302,
                    -1.7101,
                    -1e-05
                ],
                [
                    -0.0,
                    -0.0,
                    -2.46193
                ]
            ],
            [
                [
                    -2.6014,
                    -0.61606,
                    -1e-05
                ],
                [
                    -0.45302,
                    -1.7101,
                    1e-05
                ],
                [
                    -0.0,
                    -0.0,
                    -2.46175
                ]
            ],
            [
                [
                    -2.6014,
                    0.61606,
                    -1e-05
                ],
                [
                    0.45302,
                    -1.7101,
                    1e-05
                ],
                [
                    -0.0,
                    -0.0,
                    -2.46175
                ]
            ],
            [
                [
                    -2.6014,
                    -0.61606,
                    1e-05
                ],
                [
                    -0.45302,
                    -1.7101,
                    -1e-05
                ],
                [
                    -0.0,
                    -0.0,
                    -2.46193
                ]
            ],
            [
                [
                    -1.36905,
                    0.0,
                    0.0
                ],
                [
                    3e-05,
                    -4.10017,
                    1.23345
                ],
                [
                    3e-05,
                    1.49631,
                    -1.89419
                ]
            ],
            [
                [
                    -1.36908,
                    0.0,
                    0.0
                ],
                [
                    -3e-05,
                    -4.10017,
                    -1.23345
                ],
                [
                    -3e-05,
                    -1.49631,
                    -1.89419
                ]
            ],
            [
                [
                    -1.36908,
                    0.0,
                    0.0
                ],
                [
                    -3e-05,
                    -4.10017,
                    1.23345
                ],
                [
                    -3e-05,
                    1.49631,
                    -1.89419
                ]
            ],
            [
                [
                    -1.36905,
                    0.0,
                    0.0
                ],
                [
                    3e-05,
                    -4.10017,
                    -1.23345
                ],
                [
                    3e-05,
                    -1.49631,
                    -1.89419
                ]
            ]
        ]
    },
    "band_gap": 4.43,
    "is_direct": false,
    "formula": "K2Hf2O5"
}