{
    "mp_id": "mp-1228141",
    "nelements": 4,
    "nsites": 15,
    "elements": [
        "Ba",
        "Ca",
        "O",
        "Ta"
    ],
    "structure": {
        "@module": "pymatgen.core.structure",
        "@class": "Structure",
        "charge": null,
        "lattice": {
            "matrix": [
                [
                    5.90087436,
                    0.0,
                    0.0
                ],
                [
                    -2.95043718,
                    5.11030655,
                    0.0
                ],
                [
                    0.0,
                    0.0,
                    7.28211272
                ]
            ],
            "a": 5.90087436,
            "b": 5.900873883426018,
            "c": 7.28211272,
            "alpha": 90.0,
            "beta": 90.0,
            "gamma": 120.00000267162814,
            "volume": 219.59412543497982
        },
        "sites": [
            {
                "species": [
                    {
                        "element": "Ba",
                        "occu": 1
                    }
                ],
                "abc": [
                    0.666667,
                    0.333333,
                    0.3377096
                ],
                "xyz": [
                    2.95044013043718,
                    1.70343381323115,
                    2.459239373826112
                ],
                "label": "Ba",
                "properties": {}
            },
            {
                "species": [
                    {
                        "element": "Ba",
                        "occu": 1
                    }
                ],
                "abc": [
                    0.333333,
                    0.666667,
                    0.6622904
                ],
                "xyz": [
                    -2.950437180126997e-06,
                    3.40687273676885,
                    4.822873346173887
                ],
                "label": "Ba",
                "properties": {}
            },
            {
                "species": [
                    {
                        "element": "Ba",
                        "occu": 1
                    }
                ],
                "abc": [
                    0.0,
                    0.0,
                    0.0
                ],
                "xyz": [
                    0.0,
                    0.0,
                    0.0
                ],
                "label": "Ba",
                "properties": {}
            },
            {
                "species": [
                    {
                        "element": "Ca",
                        "occu": 1
                    }
                ],
                "abc": [
                    0.0,
                    0.0,
                    0.5
                ],
                "xyz": [
                    0.0,
                    0.0,
                    3.64105636
                ],
                "label": "Ca",
                "properties": {}
            },
            {
                "species": [
                    {
                        "element": "Ta",
                        "occu": 1
                    }
                ],
                "abc": [
                    0.666667,
                    0.333333,
                    0.83346712
                ],
                "xyz": [
                    2.95044013043718,
                    1.70343381323115,
                    6.069401516253766
                ],
                "label": "Ta",
                "properties": {}
            },
            {
                "species": [
                    {
                        "element": "Ta",
                        "occu": 1
                    }
                ],
                "abc": [
                    0.333333,
                    0.666667,
                    0.16653288
                ],
                "xyz": [
                    -2.950437180126997e-06,
                    3.40687273676885,
                    1.2127112037462335
                ],
                "label": "Ta",
                "properties": {}
            },
            {
                "species": [
                    {
                        "element": "O",
                        "occu": 1
                    }
                ],
                "abc": [
                    0.17634035,
                    0.82365965,
                    0.31469522
                ],
                "xyz": [
                    -1.389593805077361,
                    4.2091533043657074,
                    2.291646064485198
                ],
                "label": "O",
                "properties": {}
            },
            {
                "species": [
                    {
                        "element": "O",
                        "occu": 1
                    }
                ],
                "abc": [
                    0.82365965,
                    0.17634035,
                    0.68530478
                ],
                "xyz": [
                    4.3400309850773615,
                    0.9011532456342924,
                    4.990466655514801
                ],
                "label": "O",
                "properties": {}
            },
            {
                "species": [
                    {
                        "element": "O",
                        "occu": 1
                    }
                ],
                "abc": [
                    0.5,
                    0.5,
                    0.0
                ],
                "xyz": [
                    1.47521859,
                    2.555153275,
                    0.0
                ],
                "label": "O",
                "properties": {}
            },
            {
                "species": [
                    {
                        "element": "O",
                        "occu": 1
                    }
                ],
                "abc": [
                    0.0,
                    0.5,
                    0.0
                ],
                "xyz": [
                    -1.47521859,
                    2.555153275,
                    0.0
                ],
                "label": "O",
                "properties": {}
            },
            {
                "species": [
                    {
                        "element": "O",
                        "occu": 1
                    }
                ],
                "abc": [
                    0.64731929,
                    0.82365965,
                    0.31469522
                ],
                "xyz": [
                    1.3895937460686172,
                    4.2091533043657074,
                    2.291646064485198
                ],
                "label": "O",
                "properties": {}
            },
            {
                "species": [
                    {
                        "element": "O",
                        "occu": 1
                    }
                ],
                "abc": [
                    0.35268071,
                    0.17634035,
                    0.68530478
                ],
                "xyz": [
                    1.560843433931383,
                    0.9011532456342924,
                    4.990466655514801
                ],
                "label": "O",
                "properties": {}
            },
            {
                "species": [
                    {
                        "element": "O",
                        "occu": 1
                    }
                ],
                "abc": [
                    0.17634035,
                    0.35268071,
                    0.31469522
                ],
                "xyz": [
                    -2.950437183457666e-08,
                    1.8023065423716504,
                    2.291646064485198
                ],
                "label": "O",
                "properties": {}
            },
            {
                "species": [
                    {
                        "element": "O",
                        "occu": 1
                    }
                ],
                "abc": [
                    0.82365965,
                    0.64731929,
                    0.68530478
                ],
                "xyz": [
                    2.950437209504372,
                    3.3080000076283493,
                    4.990466655514801
                ],
                "label": "O",
                "properties": {}
            },
            {
                "species": [
                    {
                        "element": "O",
                        "occu": 1
                    }
                ],
                "abc": [
                    0.5,
                    0.0,
                    0.0
                ],
                "xyz": [
                    2.95043718,
                    0.0,
                    0.0
                ],
                "label": "O",
                "properties": {}
            }
        ]
    },
    "spacegroup": {
        "source": "spglib",
        "symbol": "P-3m1",
        "number": 164,
        "point_group": "-3m",
        "crystal_system": "trigonal",
        "hall": "-P 3 2\""
    },
    "dielectric": {
        "epsilon_ionic": [
            [
                35.086384,
                -0.0,
                0.0
            ],
            [
                -0.0,
                35.11347083,
                -0.0012544
            ],
            [
                0.0,
                -0.0012544,
                25.30927711
            ]
        ],
        "epsilon_ionic_avg": 31.836377313333333,
        "epsilon_ionic_eig": [
            25.309276949505485,
            35.11347099049451,
            35.086384
        ],
        "epsilon_electronic": [
            [
                4.55199105,
                -0.0,
                0.0
            ],
            [
                0.0,
                4.55199143,
                -0.0
            ],
            [
                0.0,
                0.0,
                4.44717427
            ]
        ],
        "epsilon_electronic_avg": 4.51705225,
        "epsilon_electronic_eig": [
            4.55199105,
            4.55199143,
            4.44717427
        ]
    },
    "phonon": {
        "lowest_freq": -0.08073528721021388,
        "frequency": [
            -0.08073528721021388,
            -0.08073528388031737,
            -0.00764116388063414,
            1.9810349304421446,
            2.3836025118694657,
            2.383602599023304,
            2.5207702898952284,
            2.5304764975994005,
            2.5304765990111826,
            2.613155765159752,
            2.9368533355560795,
            2.936853431257197,
            2.9483375391279085,
            3.098376030350092,
            3.4008061960185234,
            3.400806318189618,
            3.4357430975140604,
            3.4357432113293815,
            6.008880167777341,
            6.170726855655851,
            6.170726915065416,
            7.055555794709392,
            7.055556002545714,
            7.1648814460712495,
            7.1648816336808725,
            7.214721837440771,
            7.713774963417882,
            8.546444087273436,
            8.546444444732229,
            8.92173088904122,
            10.144504585376593,
            10.144504705835963,
            11.354343669317371,
            11.354343755416624,
            11.735476408259471,
            11.76454360873096,
            15.917748563197616,
            15.917748639967307,
            17.154027066525508,
            18.381443234890458,
            18.381443434330837,
            18.47458113504577,
            18.474581333480685,
            23.82402485919398,
            23.866424576941384
        ]
    },
    "born_effective_charge": {
        "avg_abs_trace": 3.2276928888888894,
        "tensors": [
            [
                [
                    2.68455,
                    -0.00011,
                    4e-05
                ],
                [
                    -0.0,
                    2.6862,
                    -0.00027
                ],
                [
                    -0.0,
                    0.0,
                    3.03689
                ]
            ],
            [
                [
                    2.68455,
                    0.00011,
                    -4e-05
                ],
                [
                    -0.0,
                    2.6862,
                    -0.00029
                ],
                [
                    -0.0,
                    0.0,
                    3.03677
                ]
            ],
            [
                [
                    3.00857,
                    -0.0,
                    -0.0
                ],
                [
                    -0.0,
                    3.01488,
                    -0.0004
                ],
                [
                    -0.0,
                    0.0,
                    2.37586
                ]
            ],
            [
                [
                    2.9309,
                    -0.0,
                    -0.0
                ],
                [
                    -0.0,
                    2.9295,
                    0.0003
                ],
                [
                    -0.0,
                    0.0,
                    3.21523
                ]
            ],
            [
                [
                    6.58716,
                    -5e-05,
                    -4e-05
                ],
                [
                    -0.0,
                    6.58545,
                    -9e-05
                ],
                [
                    -0.0,
                    0.0,
                    5.9937
                ]
            ],
            [
                [
                    6.58716,
                    5e-05,
                    4e-05
                ],
                [
                    -0.0,
                    6.58553,
                    4e-05
                ],
                [
                    -0.0,
                    0.0,
                    5.99398
                ]
            ],
            [
                [
                    -2.94973,
                    0.57912,
                    0.77232
                ],
                [
                    0.57904,
                    -2.28127,
                    -0.44576
                ],
                [
                    0.81899,
                    -0.47285,
                    -2.58589
                ]
            ],
            [
                [
                    -2.94985,
                    0.57915,
                    0.77227
                ],
                [
                    0.57896,
                    -2.28129,
                    -0.44566
                ],
                [
                    0.81888,
                    -0.47278,
                    -2.58593
                ]
            ],
            [
                [
                    -3.47503,
                    0.94305,
                    1.31839
                ],
                [
                    0.94321,
                    -2.38682,
                    -0.76097
                ],
                [
                    1.1751,
                    -0.67844,
                    -2.71232
                ]
            ],
            [
                [
                    -3.47503,
                    -0.94305,
                    -1.31839
                ],
                [
                    -0.94321,
                    -2.38682,
                    -0.76097
                ],
                [
                    -1.1751,
                    -0.67844,
                    -2.71232
                ]
            ],
            [
                [
                    -2.94985,
                    -0.57915,
                    -0.77227
                ],
                [
                    -0.57904,
                    -2.28127,
                    -0.44576
                ],
                [
                    -0.81899,
                    -0.47285,
                    -2.58589
                ]
            ],
            [
                [
                    -2.94973,
                    -0.57912,
                    -0.77232
                ],
                [
                    -0.57896,
                    -2.28129,
                    -0.44566
                ],
                [
                    -0.81888,
                    -0.47278,
                    -2.58593
                ]
            ],
            [
                [
                    -1.94625,
                    -8e-05,
                    8e-05
                ],
                [
                    -0.0,
                    -3.28445,
                    0.89171
                ],
                [
                    -0.0,
                    0.94569,
                    -2.58589
                ]
            ],
            [
                [
                    -1.94625,
                    8e-05,
                    -8e-05
                ],
                [
                    -0.0,
                    -3.28436,
                    0.89167
                ],
                [
                    0.0,
                    0.94556,
                    -2.58593
                ]
            ],
            [
                [
                    -1.84118,
                    -0.0,
                    -0.0
                ],
                [
                    -0.0,
                    -4.02021,
                    1.5221
                ],
                [
                    -0.0,
                    1.35688,
                    -2.71232
                ]
            ]
        ]
    },
    "band_gap": 3.4596999999999998,
    "is_direct": false,
    "formula": "Ba3CaTa2O9"
}