{
    "mp_id": "mp-18051",
    "nelements": 3,
    "nsites": 32,
    "elements": [
        "La",
        "O",
        "Ti"
    ],
    "structure": {
        "@module": "pymatgen.core.structure",
        "@class": "Structure",
        "charge": null,
        "lattice": {
            "matrix": [
                [
                    10.97808415,
                    0.0,
                    0.0
                ],
                [
                    0.0,
                    3.91604596,
                    0.0
                ],
                [
                    0.0,
                    0.0,
                    11.43259729
                ]
            ],
            "a": 10.97808415,
            "b": 3.91604596,
            "c": 11.43259729,
            "alpha": 90.0,
            "beta": 90.0,
            "gamma": 90.0,
            "volume": 491.4951554904767
        },
        "sites": [
            {
                "species": [
                    {
                        "element": "La",
                        "occu": 1
                    }
                ],
                "abc": [
                    0.09736661,
                    0.75,
                    0.7177327
                ],
                "xyz": [
                    1.0688988379802316,
                    2.93703447,
                    8.205548920964384
                ],
                "label": "La",
                "properties": {}
            },
            {
                "species": [
                    {
                        "element": "La",
                        "occu": 1
                    }
                ],
                "abc": [
                    0.90263339,
                    0.25,
                    0.2822673
                ],
                "xyz": [
                    9.909185312019769,
                    0.97901149,
                    3.227048369035617
                ],
                "label": "La",
                "properties": {}
            },
            {
                "species": [
                    {
                        "element": "La",
                        "occu": 1
                    }
                ],
                "abc": [
                    0.59736661,
                    0.75,
                    0.7822673
                ],
                "xyz": [
                    6.557940912980232,
                    2.93703447,
                    8.943347014035616
                ],
                "label": "La",
                "properties": {}
            },
            {
                "species": [
                    {
                        "element": "La",
                        "occu": 1
                    }
                ],
                "abc": [
                    0.40263339,
                    0.25,
                    0.2177327
                ],
                "xyz": [
                    4.420143237019769,
                    0.97901149,
                    2.489250275964383
                ],
                "label": "La",
                "properties": {}
            },
            {
                "species": [
                    {
                        "element": "La",
                        "occu": 1
                    }
                ],
                "abc": [
                    0.36503312,
                    0.25,
                    0.56266086
                ],
                "xyz": [
                    4.007364308897048,
                    0.97901149,
                    6.4326750232250705
                ],
                "label": "La",
                "properties": {}
            },
            {
                "species": [
                    {
                        "element": "La",
                        "occu": 1
                    }
                ],
                "abc": [
                    0.63496688,
                    0.75,
                    0.43733914
                ],
                "xyz": [
                    6.9707198411029525,
                    2.93703447,
                    4.999922266774931
                ],
                "label": "La",
                "properties": {}
            },
            {
                "species": [
                    {
                        "element": "La",
                        "occu": 1
                    }
                ],
                "abc": [
                    0.86503312,
                    0.25,
                    0.93733914
                ],
                "xyz": [
                    9.496406383897048,
                    0.97901149,
                    10.716220911774931
                ],
                "label": "La",
                "properties": {}
            },
            {
                "species": [
                    {
                        "element": "La",
                        "occu": 1
                    }
                ],
                "abc": [
                    0.13496688,
                    0.75,
                    0.06266086
                ],
                "xyz": [
                    1.4816777661029523,
                    2.93703447,
                    0.7163763782250694
                ],
                "label": "La",
                "properties": {}
            },
            {
                "species": [
                    {
                        "element": "Ti",
                        "occu": 1
                    }
                ],
                "abc": [
                    0.30673551,
                    0.25,
                    0.87436035
                ],
                "xyz": [
                    3.3673682405731666,
                    0.97901149,
                    9.996209767893452
                ],
                "label": "Ti",
                "properties": {}
            },
            {
                "species": [
                    {
                        "element": "Ti",
                        "occu": 1
                    }
                ],
                "abc": [
                    0.69326449,
                    0.75,
                    0.12563965
                ],
                "xyz": [
                    7.610715909426834,
                    2.93703447,
                    1.4363875221065485
                ],
                "label": "Ti",
                "properties": {}
            },
            {
                "species": [
                    {
                        "element": "Ti",
                        "occu": 1
                    }
                ],
                "abc": [
                    0.80673551,
                    0.25,
                    0.62563965
                ],
                "xyz": [
                    8.856410315573166,
                    0.97901149,
                    7.152686167106548
                ],
                "label": "Ti",
                "properties": {}
            },
            {
                "species": [
                    {
                        "element": "Ti",
                        "occu": 1
                    }
                ],
                "abc": [
                    0.19326449,
                    0.75,
                    0.37436035
                ],
                "xyz": [
                    2.1216738344268338,
                    2.93703447,
                    4.279911122893452
                ],
                "label": "Ti",
                "properties": {}
            },
            {
                "species": [
                    {
                        "element": "O",
                        "occu": 1
                    }
                ],
                "abc": [
                    0.46610169,
                    0.25,
                    0.82733618
                ],
                "xyz": [
                    5.116903575277214,
                    0.97901149,
                    9.458601369386953
                ],
                "label": "O",
                "properties": {}
            },
            {
                "species": [
                    {
                        "element": "O",
                        "occu": 1
                    }
                ],
                "abc": [
                    0.53389831,
                    0.75,
                    0.17266382
                ],
                "xyz": [
                    5.861180574722787,
                    2.93703447,
                    1.9739959206130477
                ],
                "label": "O",
                "properties": {}
            },
            {
                "species": [
                    {
                        "element": "O",
                        "occu": 1
                    }
                ],
                "abc": [
                    0.96610169,
                    0.25,
                    0.67266382
                ],
                "xyz": [
                    10.605945650277214,
                    0.97901149,
                    7.690294565613049
                ],
                "label": "O",
                "properties": {}
            },
            {
                "species": [
                    {
                        "element": "O",
                        "occu": 1
                    }
                ],
                "abc": [
                    0.03389831,
                    0.75,
                    0.32733618
                ],
                "xyz": [
                    0.37213849972278656,
                    2.93703447,
                    3.742302724386952
                ],
                "label": "O",
                "properties": {}
            },
            {
                "species": [
                    {
                        "element": "O",
                        "occu": 1
                    }
                ],
                "abc": [
                    0.22002128,
                    0.25,
                    0.7284025
                ],
                "xyz": [
                    2.4154121266307125,
                    0.97901149,
                    8.327532447529224
                ],
                "label": "O",
                "properties": {}
            },
            {
                "species": [
                    {
                        "element": "O",
                        "occu": 1
                    }
                ],
                "abc": [
                    0.77997872,
                    0.75,
                    0.2715975
                ],
                "xyz": [
                    8.56267202336929,
                    2.93703447,
                    3.105064842470775
                ],
                "label": "O",
                "properties": {}
            },
            {
                "species": [
                    {
                        "element": "O",
                        "occu": 1
                    }
                ],
                "abc": [
                    0.72002128,
                    0.25,
                    0.7715975
                ],
                "xyz": [
                    7.904454201630712,
                    0.97901149,
                    8.821363487470776
                ],
                "label": "O",
                "properties": {}
            },
            {
                "species": [
                    {
                        "element": "O",
                        "occu": 1
                    }
                ],
                "abc": [
                    0.27997872,
                    0.75,
                    0.2284025
                ],
                "xyz": [
                    3.0736299483692884,
                    2.93703447,
                    2.611233802529225
                ],
                "label": "O",
                "properties": {}
            },
            {
                "species": [
                    {
                        "element": "O",
                        "occu": 1
                    }
                ],
                "abc": [
                    0.25953396,
                    0.75,
                    0.87832552
                ],
                "xyz": [
                    2.8491856526627344,
                    2.93703447,
                    10.041541959689841
                ],
                "label": "O",
                "properties": {}
            },
            {
                "species": [
                    {
                        "element": "O",
                        "occu": 1
                    }
                ],
                "abc": [
                    0.74046604,
                    0.25,
                    0.12167448
                ],
                "xyz": [
                    8.128898497337268,
                    0.97901149,
                    1.3910553303101592
                ],
                "label": "O",
                "properties": {}
            },
            {
                "species": [
                    {
                        "element": "O",
                        "occu": 1
                    }
                ],
                "abc": [
                    0.75953396,
                    0.75,
                    0.62167448
                ],
                "xyz": [
                    8.338227727662733,
                    2.93703447,
                    7.1073539753101596
                ],
                "label": "O",
                "properties": {}
            },
            {
                "species": [
                    {
                        "element": "O",
                        "occu": 1
                    }
                ],
                "abc": [
                    0.24046604,
                    0.25,
                    0.37832552
                ],
                "xyz": [
                    2.639856422337266,
                    0.97901149,
                    4.325243314689841
                ],
                "label": "O",
                "properties": {}
            },
            {
                "species": [
                    {
                        "element": "O",
                        "occu": 1
                    }
                ],
                "abc": [
                    0.00789296,
                    0.25,
                    0.10073816
                ],
                "xyz": [
                    0.086649579072584,
                    0.97901149,
                    1.1516988150155865
                ],
                "label": "O",
                "properties": {}
            },
            {
                "species": [
                    {
                        "element": "O",
                        "occu": 1
                    }
                ],
                "abc": [
                    0.99210704,
                    0.75,
                    0.89926184
                ],
                "xyz": [
                    10.891434570927418,
                    2.93703447,
                    10.280898474984413
                ],
                "label": "O",
                "properties": {}
            },
            {
                "species": [
                    {
                        "element": "O",
                        "occu": 1
                    }
                ],
                "abc": [
                    0.50789296,
                    0.25,
                    0.39926184
                ],
                "xyz": [
                    5.575691654072584,
                    0.97901149,
                    4.564599829984414
                ],
                "label": "O",
                "properties": {}
            },
            {
                "species": [
                    {
                        "element": "O",
                        "occu": 1
                    }
                ],
                "abc": [
                    0.49210704,
                    0.75,
                    0.60073816
                ],
                "xyz": [
                    5.402392495927416,
                    2.93703447,
                    6.867997460015586
                ],
                "label": "O",
                "properties": {}
            },
            {
                "species": [
                    {
                        "element": "O",
                        "occu": 1
                    }
                ],
                "abc": [
                    0.27311526,
                    0.25,
                    0.03894507
                ],
                "xyz": [
                    2.9982823069291293,
                    0.97901149,
                    0.4452433017408603
                ],
                "label": "O",
                "properties": {}
            },
            {
                "species": [
                    {
                        "element": "O",
                        "occu": 1
                    }
                ],
                "abc": [
                    0.72688474,
                    0.75,
                    0.96105493
                ],
                "xyz": [
                    7.979801843070872,
                    2.93703447,
                    10.98735398825914
                ],
                "label": "O",
                "properties": {}
            },
            {
                "species": [
                    {
                        "element": "O",
                        "occu": 1
                    }
                ],
                "abc": [
                    0.77311526,
                    0.25,
                    0.46105493
                ],
                "xyz": [
                    8.48732438192913,
                    0.97901149,
                    5.27105534325914
                ],
                "label": "O",
                "properties": {}
            },
            {
                "species": [
                    {
                        "element": "O",
                        "occu": 1
                    }
                ],
                "abc": [
                    0.22688474,
                    0.75,
                    0.53894507
                ],
                "xyz": [
                    2.490759768070871,
                    2.93703447,
                    6.1615419467408605
                ],
                "label": "O",
                "properties": {}
            }
        ]
    },
    "spacegroup": {
        "source": "spglib",
        "symbol": "Pnma",
        "number": 62,
        "point_group": "mmm",
        "crystal_system": "orthorhombic",
        "hall": "-P 2ac 2n"
    },
    "dielectric": {
        "epsilon_ionic": [
            [
                10.44058235,
                1.6e-07,
                -6e-08
            ],
            [
                1.6e-07,
                16.0733257,
                -1.1e-07
            ],
            [
                -6e-08,
                -1.1e-07,
                12.02329436
            ]
        ],
        "epsilon_ionic_avg": 12.84573413666667,
        "epsilon_ionic_eig": [
            10.440582349999996,
            16.07332570000001,
            12.02329436
        ],
        "epsilon_electronic": [
            [
                4.52361207,
                -0.0,
                0.0
            ],
            [
                -0.0,
                4.78699478,
                0.0
            ],
            [
                0.0,
                0.0,
                4.62254967
            ]
        ],
        "epsilon_electronic_avg": 4.644385506666667,
        "epsilon_electronic_eig": [
            4.52361207,
            4.78699478,
            4.62254967
        ]
    },
    "phonon": {
        "lowest_freq": -0.22437950200817566,
        "frequency": [
            -0.22437950200817566,
            -0.0612196257864817,
            -0.0307810986934797,
            1.3635461798815323,
            1.8474082924396824,
            2.1283908067124364,
            2.1556129922713345,
            2.3444333144632075,
            2.3558966075485857,
            2.3905473888922595,
            2.7391884913181435,
            2.787647528255588,
            2.933357340047627,
            2.942376275976198,
            3.1156318808403127,
            3.143657337827744,
            3.15245660423574,
            3.1652897857775346,
            3.693373936839879,
            3.7791894297268036,
            4.030203489029904,
            4.380181336770482,
            4.497678787903907,
            4.534526301355811,
            4.612131282102454,
            4.634054811996978,
            4.911098017376252,
            5.029348497263606,
            5.062453232631252,
            5.345472734806904,
            5.478526108854252,
            5.788146177079145,
            5.820887594175655,
            5.978678064925401,
            6.010339628152523,
            6.1998110637489265,
            6.444398862019807,
            6.605388100159017,
            6.683036550593901,
            6.962265937943365,
            7.075693691765021,
            7.461373490812061,
            7.68436728692429,
            7.703432365414012,
            7.765364399902206,
            7.983815736332955,
            8.371946289899952,
            8.506783518651282,
            8.621238487327183,
            8.770635877983771,
            9.034059702673215,
            9.21363057726424,
            9.30706834740519,
            9.443883905004132,
            9.465145726664142,
            9.509384816336661,
            9.794355718212021,
            9.799672205542867,
            9.884110329424844,
            9.957331132380396,
            10.054094634641865,
            10.081613340328994,
            10.108272243748269,
            10.4162207066333,
            10.944628660912809,
            11.621821479479753,
            11.669847103437512,
            12.085246480247145,
            12.10096345697889,
            12.115489561610746,
            12.2982133479432,
            12.30970533673318,
            12.419004455390509,
            12.462228670800869,
            12.526003396897181,
            12.773362363037256,
            13.578371710860655,
            13.937759221566635,
            14.008742333010924,
            14.586357669044437,
            15.838415131775118,
            15.853569073388371,
            15.986354271883952,
            16.00671934934016,
            17.06346539659372,
            17.141265419324824,
            18.15586765245619,
            18.909798279636874,
            19.145503590555634,
            19.688958644093404,
            20.565774501652246,
            20.79580615242174,
            22.525930893386736,
            23.527581063832677,
            23.71367218577855,
            24.23908462501955
        ]
    },
    "born_effective_charge": {
        "avg_abs_trace": 3.2222689583333333,
        "tensors": [
            [
                [
                    4.63709,
                    -0.0,
                    -0.29544
                ],
                [
                    9e-05,
                    4.20399,
                    1e-05
                ],
                [
                    -0.56884,
                    -0.0,
                    4.09216
                ]
            ],
            [
                [
                    4.6367,
                    0.0,
                    -0.29551
                ],
                [
                    -9e-05,
                    4.20399,
                    -1e-05
                ],
                [
                    -0.56876,
                    -0.0,
                    4.09177
                ]
            ],
            [
                [
                    4.63709,
                    -0.0,
                    0.29544
                ],
                [
                    9e-05,
                    4.20399,
                    -1e-05
                ],
                [
                    0.56876,
                    -0.0,
                    4.09177
                ]
            ],
            [
                [
                    4.6367,
                    -0.0,
                    0.29551
                ],
                [
                    -9e-05,
                    4.20399,
                    1e-05
                ],
                [
                    0.56884,
                    -0.0,
                    4.09216
                ]
            ],
            [
                [
                    3.98139,
                    -0.0,
                    -0.37204
                ],
                [
                    -0.0005,
                    4.1771,
                    3e-05
                ],
                [
                    0.03133,
                    -0.0,
                    3.8105
                ]
            ],
            [
                [
                    3.98142,
                    -0.0,
                    -0.37163
                ],
                [
                    0.0005,
                    4.1771,
                    -3e-05
                ],
                [
                    0.03134,
                    -0.0,
                    3.81049
                ]
            ],
            [
                [
                    3.98139,
                    -0.0,
                    0.37204
                ],
                [
                    -0.0005,
                    4.1771,
                    -3e-05
                ],
                [
                    -0.03134,
                    -0.0,
                    3.81049
                ]
            ],
            [
                [
                    3.98142,
                    -0.0,
                    0.37163
                ],
                [
                    0.0005,
                    4.1771,
                    3e-05
                ],
                [
                    -0.03133,
                    -0.0,
                    3.8105
                ]
            ],
            [
                [
                    3.58905,
                    -0.0,
                    -0.28124
                ],
                [
                    -0.00162,
                    5.40413,
                    -0.00011
                ],
                [
                    -0.52822,
                    -0.0,
                    4.77216
                ]
            ],
            [
                [
                    3.58907,
                    -0.0,
                    -0.28119
                ],
                [
                    0.00162,
                    5.40413,
                    0.00011
                ],
                [
                    -0.52803,
                    -0.0,
                    4.77223
                ]
            ],
            [
                [
                    3.58905,
                    -0.0,
                    0.28124
                ],
                [
                    -0.00162,
                    5.40413,
                    0.00011
                ],
                [
                    0.52803,
                    -0.0,
                    4.77223
                ]
            ],
            [
                [
                    3.58907,
                    -0.0,
                    0.28119
                ],
                [
                    0.00162,
                    5.40413,
                    -0.00011
                ],
                [
                    0.52822,
                    -0.0,
                    4.77216
                ]
            ],
            [
                [
                    -3.75575,
                    -0.0,
                    0.89938
                ],
                [
                    -0.00011,
                    -1.93479,
                    3e-05
                ],
                [
                    1.04071,
                    -0.0,
                    -1.35966
                ]
            ],
            [
                [
                    -3.7561,
                    -0.0,
                    0.89953
                ],
                [
                    0.00011,
                    -1.93479,
                    -3e-05
                ],
                [
                    1.04095,
                    -0.0,
                    -1.35957
                ]
            ],
            [
                [
                    -3.75575,
                    -0.0,
                    -0.89938
                ],
                [
                    -0.00011,
                    -1.93479,
                    -3e-05
                ],
                [
                    -1.04095,
                    -0.0,
                    -1.35957
                ]
            ],
            [
                [
                    -3.7561,
                    0.0,
                    -0.89953
                ],
                [
                    0.00011,
                    -1.93479,
                    3e-05
                ],
                [
                    -1.04071,
                    -0.0,
                    -1.35966
                ]
            ],
            [
                [
                    -2.44263,
                    -0.0,
                    -0.34759
                ],
                [
                    0.00011,
                    -2.60086,
                    6e-05
                ],
                [
                    -0.35103,
                    -0.0,
                    -2.96261
                ]
            ],
            [
                [
                    -2.44248,
                    -0.0,
                    -0.34769
                ],
                [
                    -0.00011,
                    -2.60086,
                    -6e-05
                ],
                [
                    -0.351,
                    -0.0,
                    -2.96253
                ]
            ],
            [
                [
                    -2.44263,
                    -0.0,
                    0.34759
                ],
                [
                    0.00011,
                    -2.60086,
                    -6e-05
                ],
                [
                    0.351,
                    -0.0,
                    -2.96253
                ]
            ],
            [
                [
                    -2.44248,
                    -0.0,
                    0.34769
                ],
                [
                    -0.00011,
                    -2.60086,
                    6e-05
                ],
                [
                    0.35103,
                    -0.0,
                    -2.96261
                ]
            ],
            [
                [
                    -1.5711,
                    -0.0,
                    0.00468
                ],
                [
                    0.0024,
                    -4.39199,
                    -0.0002
                ],
                [
                    0.14212,
                    -0.0,
                    -1.76729
                ]
            ],
            [
                [
                    -1.57133,
                    -0.0,
                    0.00457
                ],
                [
                    -0.0024,
                    -4.39199,
                    0.0002
                ],
                [
                    0.14224,
                    -0.0,
                    -1.7673
                ]
            ],
            [
                [
                    -1.5711,
                    0.0,
                    -0.00468
                ],
                [
                    0.0024,
                    -4.39199,
                    0.0002
                ],
                [
                    -0.14224,
                    -0.0,
                    -1.7673
                ]
            ],
            [
                [
                    -1.57133,
                    -0.0,
                    -0.00457
                ],
                [
                    -0.0024,
                    -4.39199,
                    -0.0002
                ],
                [
                    -0.14212,
                    -0.0,
                    -1.76729
                ]
            ],
            [
                [
                    -2.59128,
                    -0.0,
                    0.10278
                ],
                [
                    -0.00078,
                    -2.57766,
                    0.00024
                ],
                [
                    0.45687,
                    0.0,
                    -2.71247
                ]
            ],
            [
                [
                    -2.5914,
                    -0.0,
                    0.10285
                ],
                [
                    0.00078,
                    -2.57766,
                    -0.00024
                ],
                [
                    0.45686,
                    0.0,
                    -2.71247
                ]
            ],
            [
                [
                    -2.59128,
                    -0.0,
                    -0.10278
                ],
                [
                    -0.00078,
                    -2.57766,
                    -0.00024
                ],
                [
                    -0.45686,
                    -0.0,
                    -2.71247
                ]
            ],
            [
                [
                    -2.5914,
                    -0.0,
                    -0.10285
                ],
                [
                    0.00078,
                    -2.57766,
                    0.00024
                ],
                [
                    -0.45687,
                    -0.0,
                    -2.71247
                ]
            ],
            [
                [
                    -1.84631,
                    0.0,
                    0.02326
                ],
                [
                    -0.00016,
                    -2.2799,
                    0.0003
                ],
                [
                    0.08482,
                    -0.0,
                    -3.8727
                ]
            ],
            [
                [
                    -1.84634,
                    0.0,
                    0.0234
                ],
                [
                    0.00016,
                    -2.2799,
                    -0.0003
                ],
                [
                    0.08503,
                    -0.0,
                    -3.87272
                ]
            ],
            [
                [
                    -1.84631,
                    0.0,
                    -0.02326
                ],
                [
                    -0.00016,
                    -2.2799,
                    -0.0003
                ],
                [
                    -0.08503,
                    -0.0,
                    -3.87272
                ]
            ],
            [
                [
                    -1.84634,
                    0.0,
                    -0.0234
                ],
                [
                    0.00016,
                    -2.2799,
                    0.0003
                ],
                [
                    -0.08482,
                    -0.0,
                    -3.8727
                ]
            ]
        ]
    },
    "band_gap": 3.5211,
    "is_direct": false,
    "formula": "La2TiO5"
}