{
    "mp_id": "mp-18780",
    "nelements": 3,
    "nsites": 14,
    "elements": [
        "K",
        "O",
        "W"
    ],
    "structure": {
        "@module": "pymatgen.core.structure",
        "@class": "Structure",
        "charge": null,
        "lattice": {
            "matrix": [
                [
                    6.20812828,
                    -3.0668113,
                    -0.00267956
                ],
                [
                    6.20812828,
                    3.0668113,
                    -0.00267956
                ],
                [
                    -3.31587661,
                    0.0,
                    6.82759743
                ]
            ],
            "a": 6.924319134094358,
            "b": 6.924319134094358,
            "c": 7.590199230513498,
            "alpha": 113.08060629252346,
            "beta": 113.08060629252346,
            "gamma": 52.57867922328491,
            "volume": 259.9289141362956
        },
        "sites": [
            {
                "species": [
                    {
                        "element": "K",
                        "occu": 1
                    }
                ],
                "abc": [
                    0.49041456,
                    0.49041456,
                    0.76532639
                ],
                "xyz": [
                    3.551385122102776,
                    0.0,
                    5.222712302998391
                ],
                "label": "K",
                "properties": {}
            },
            {
                "species": [
                    {
                        "element": "K",
                        "occu": 1
                    }
                ],
                "abc": [
                    0.50958544,
                    0.50958544,
                    0.23467361
                ],
                "xyz": [
                    5.548994827897223,
                    0.0,
                    1.5995260070016095
                ],
                "label": "K",
                "properties": {}
            },
            {
                "species": [
                    {
                        "element": "K",
                        "occu": 1
                    }
                ],
                "abc": [
                    0.84412641,
                    0.84412641,
                    0.25170284
                ],
                "xyz": [
                    9.646274515805178,
                    0.0,
                    1.714001888781342
                ],
                "label": "K",
                "properties": {}
            },
            {
                "species": [
                    {
                        "element": "K",
                        "occu": 1
                    }
                ],
                "abc": [
                    0.15587359,
                    0.15587359,
                    0.74829716
                ],
                "xyz": [
                    -0.545894565805177,
                    0.0,
                    5.108236421218658
                ],
                "label": "K",
                "properties": {}
            },
            {
                "species": [
                    {
                        "element": "W",
                        "occu": 1
                    }
                ],
                "abc": [
                    0.82447847,
                    0.82447847,
                    0.77461094
                ],
                "xyz": [
                    7.668421913920151,
                    0.0,
                    5.284313184135738
                ],
                "label": "W",
                "properties": {}
            },
            {
                "species": [
                    {
                        "element": "W",
                        "occu": 1
                    }
                ],
                "abc": [
                    0.17552153,
                    0.17552153,
                    0.22538906
                ],
                "xyz": [
                    1.4319580360798505,
                    0.0,
                    1.5379251258642623
                ],
                "label": "W",
                "properties": {}
            },
            {
                "species": [
                    {
                        "element": "O",
                        "occu": 1
                    }
                ],
                "abc": [
                    0.09641042,
                    0.61993838,
                    0.92563411
                ],
                "xyz": [
                    1.3778967488568972,
                    1.605561463593948,
                    6.3179375709658085
                ],
                "label": "O",
                "properties": {}
            },
            {
                "species": [
                    {
                        "element": "O",
                        "occu": 1
                    }
                ],
                "abc": [
                    0.38006162,
                    0.90358958,
                    0.07436589
                ],
                "xyz": [
                    7.7224832011431035,
                    1.6055614635939481,
                    0.5043007390341907
                ],
                "label": "O",
                "properties": {}
            },
            {
                "species": [
                    {
                        "element": "O",
                        "occu": 1
                    }
                ],
                "abc": [
                    0.90358958,
                    0.38006162,
                    0.07436589
                ],
                "xyz": [
                    7.7224832011431035,
                    -1.6055614635939481,
                    0.5043007390341907
                ],
                "label": "O",
                "properties": {}
            },
            {
                "species": [
                    {
                        "element": "O",
                        "occu": 1
                    }
                ],
                "abc": [
                    0.61993838,
                    0.09641042,
                    0.92563411
                ],
                "xyz": [
                    1.3778967488568972,
                    -1.605561463593948,
                    6.3179375709658085
                ],
                "label": "O",
                "properties": {}
            },
            {
                "species": [
                    {
                        "element": "O",
                        "occu": 1
                    }
                ],
                "abc": [
                    0.08815347,
                    0.08815347,
                    0.36117682
                ],
                "xyz": [
                    -0.10308166933791707,
                    0.0,
                    2.4654975029834265
                ],
                "label": "O",
                "properties": {}
            },
            {
                "species": [
                    {
                        "element": "O",
                        "occu": 1
                    }
                ],
                "abc": [
                    0.91184653,
                    0.91184653,
                    0.63882318
                ],
                "xyz": [
                    9.203461619337917,
                    0.0,
                    4.356740807016574
                ],
                "label": "O",
                "properties": {}
            },
            {
                "species": [
                    {
                        "element": "O",
                        "occu": 1
                    }
                ],
                "abc": [
                    0.66662919,
                    0.66662919,
                    0.61764034
                ],
                "xyz": [
                    6.229019896626539,
                    0.0,
                    4.213427052223613
                ],
                "label": "O",
                "properties": {}
            },
            {
                "species": [
                    {
                        "element": "O",
                        "occu": 1
                    }
                ],
                "abc": [
                    0.33337081,
                    0.33337081,
                    0.38235966
                ],
                "xyz": [
                    2.871360053373462,
                    0.0,
                    2.6088112577763862
                ],
                "label": "O",
                "properties": {}
            }
        ]
    },
    "spacegroup": {
        "source": "spglib",
        "symbol": "C2/m",
        "number": 12,
        "point_group": "2/m",
        "crystal_system": "monoclinic",
        "hall": "-C 2y"
    },
    "dielectric": {
        "epsilon_ionic": [
            [
                3.32652731,
                -2.3e-07,
                -0.24292975
            ],
            [
                -2.3e-07,
                10.52140946,
                2.1e-07
            ],
            [
                -0.24292975,
                2.1e-07,
                2.45106985
            ]
        ],
        "epsilon_ionic_avg": 5.433002206666667,
        "epsilon_ionic_eig": [
            3.3894194989621074,
            2.3881776610378807,
            10.521409460000012
        ],
        "epsilon_electronic": [
            [
                2.61605099,
                0.0,
                0.00633599
            ],
            [
                0.0,
                2.6391223,
                0.0
            ],
            [
                0.00633357,
                0.0,
                2.62623877
            ]
        ],
        "epsilon_electronic_avg": 2.6271373533333335,
        "epsilon_electronic_eig": [
            2.613016094634621,
            2.629273665365379,
            2.6391223
        ]
    },
    "phonon": {
        "lowest_freq": -0.06369508390195247,
        "frequency": [
            -0.06369508390195247,
            -0.03930397902231956,
            -0.020816280406048576,
            0.9440918239783648,
            1.3087791006157812,
            1.4562052599188375,
            1.7409823344462567,
            1.7638117150080304,
            1.9565767729491572,
            2.4748406113841432,
            2.7968688981790546,
            2.9401779414643645,
            3.2631666922746794,
            3.4791891930026426,
            3.5874100469702705,
            3.705090294967299,
            3.941281239655125,
            3.989756041388207,
            4.285512186813424,
            4.489729509240275,
            4.686063931737451,
            4.790799156122962,
            4.889268687768732,
            5.061303747091346,
            8.254209370832625,
            8.720952235625264,
            8.923771000964198,
            8.948271044548582,
            9.243834319960474,
            9.34827443498735,
            9.421353125885444,
            9.653758608154117,
            10.141713892665477,
            10.271793643088069,
            23.63052502010361,
            23.635448600161663,
            23.68666771173715,
            23.76255933511045,
            23.935905783087772,
            24.494595371525524,
            26.335224899227754,
            26.36338804848485
        ]
    },
    "born_effective_charge": {
        "avg_abs_trace": 1.590220714285714,
        "tensors": [
            [
                [
                    1.25143,
                    0.0,
                    0.11686
                ],
                [
                    -0.0,
                    1.34505,
                    4e-05
                ],
                [
                    0.1918,
                    0.0,
                    1.28129
                ]
            ],
            [
                [
                    1.25143,
                    0.0,
                    0.11692
                ],
                [
                    0.0,
                    1.34505,
                    -4e-05
                ],
                [
                    0.1919,
                    0.0,
                    1.28114
                ]
            ],
            [
                [
                    1.28766,
                    0.0,
                    -0.12769
                ],
                [
                    -1e-05,
                    1.13201,
                    -1e-05
                ],
                [
                    -0.19003,
                    0.0,
                    1.23741
                ]
            ],
            [
                [
                    1.28759,
                    0.0,
                    -0.12775
                ],
                [
                    1e-05,
                    1.13201,
                    1e-05
                ],
                [
                    -0.18996,
                    0.0,
                    1.23746
                ]
            ],
            [
                [
                    3.04014,
                    0.0,
                    0.08891
                ],
                [
                    -7e-05,
                    3.04418,
                    0.0
                ],
                [
                    0.06209,
                    0.0,
                    3.07829
                ]
            ],
            [
                [
                    3.03999,
                    0.0,
                    0.08892
                ],
                [
                    7e-05,
                    3.04418,
                    -0.0
                ],
                [
                    0.06236,
                    0.0,
                    3.07832
                ]
            ],
            [
                [
                    -0.77538,
                    -0.06867,
                    0.00279
                ],
                [
                    -0.12418,
                    -2.03674,
                    0.84599
                ],
                [
                    0.02128,
                    0.80499,
                    -1.35312
                ]
            ],
            [
                [
                    -0.77526,
                    0.06905,
                    0.00315
                ],
                [
                    0.12418,
                    -2.03674,
                    -0.84599
                ],
                [
                    0.02121,
                    -0.80528,
                    -1.35342
                ]
            ],
            [
                [
                    -0.77526,
                    -0.06905,
                    0.00315
                ],
                [
                    -0.12404,
                    -2.03615,
                    0.84589
                ],
                [
                    0.02121,
                    0.80528,
                    -1.35342
                ]
            ],
            [
                [
                    -0.77538,
                    0.06867,
                    0.00279
                ],
                [
                    0.12404,
                    -2.03615,
                    -0.84589
                ],
                [
                    0.02128,
                    -0.80499,
                    -1.35312
                ]
            ],
            [
                [
                    -2.10676,
                    0.0,
                    0.75153
                ],
                [
                    0.0,
                    -0.70281,
                    -0.00011
                ],
                [
                    0.79296,
                    0.0,
                    -1.37723
                ]
            ],
            [
                [
                    -2.10661,
                    0.0,
                    0.75141
                ],
                [
                    -0.0,
                    -0.70281,
                    0.00011
                ],
                [
                    0.79321,
                    0.0,
                    -1.37764
                ]
            ],
            [
                [
                    -1.9221,
                    0.0,
                    -0.83565
                ],
                [
                    0.00056,
                    -0.74554,
                    0.00055
                ],
                [
                    -0.89913,
                    0.0,
                    -1.5128
                ]
            ],
            [
                [
                    -1.9215,
                    0.0,
                    -0.83536
                ],
                [
                    -0.00056,
                    -0.74554,
                    -0.00055
                ],
                [
                    -0.9002,
                    0.0,
                    -1.51316
                ]
            ]
        ]
    },
    "band_gap": 4.509399999999999,
    "is_direct": false,
    "formula": "K2WO4"
}