{
    "mp_id": "mp-1216100",
    "nelements": 5,
    "nsites": 24,
    "elements": [
        "Al",
        "B",
        "Be",
        "O",
        "Y"
    ],
    "structure": {
        "@module": "pymatgen.core.structure",
        "@class": "Structure",
        "charge": null,
        "lattice": {
            "matrix": [
                [
                    4.69383434,
                    0.0,
                    7.668e-05
                ],
                [
                    0.0,
                    7.29420611,
                    0.0
                ],
                [
                    -0.00213969,
                    0.0,
                    7.30954462
                ]
            ],
            "a": 4.693834340626335,
            "b": 7.29420611,
            "c": 7.309544933170891,
            "alpha": 90.0,
            "beta": 90.01583593197905,
            "gamma": 90.0,
            "volume": 250.26269233258716
        },
        "sites": [
            {
                "species": [
                    {
                        "element": "Y",
                        "occu": 1
                    }
                ],
                "abc": [
                    0.487198,
                    0.33877462,
                    0.57662455
                ],
                "xyz": [
                    2.2855929049959305,
                    2.4710919031169283,
                    4.214900235555061
                ],
                "label": "Y",
                "properties": {}
            },
            {
                "species": [
                    {
                        "element": "Y",
                        "occu": 1
                    }
                ],
                "abc": [
                    0.512802,
                    0.83877462,
                    0.42337545
                ],
                "xyz": [
                    2.40610174500407,
                    6.118194958116929,
                    3.0947210644449386
                ],
                "label": "Y",
                "properties": {}
            },
            {
                "species": [
                    {
                        "element": "Y",
                        "occu": 1
                    }
                ],
                "abc": [
                    0.49921256,
                    0.66445693,
                    0.90417981
                ],
                "xyz": [
                    2.3412863925896517,
                    4.846685798637842,
                    6.609180945317223
                ],
                "label": "Y",
                "properties": {}
            },
            {
                "species": [
                    {
                        "element": "Y",
                        "occu": 1
                    }
                ],
                "abc": [
                    0.50078744,
                    0.16445693,
                    0.09582019
                ],
                "xyz": [
                    2.350408257410349,
                    1.1995827436378423,
                    0.700440354682777
                ],
                "label": "Y",
                "properties": {}
            },
            {
                "species": [
                    {
                        "element": "Be",
                        "occu": 1
                    }
                ],
                "abc": [
                    0.05345039,
                    0.13552093,
                    0.38694732
                ],
                "xyz": [
                    0.25005932875726183,
                    0.9885175956388824,
                    2.8284127997053234
                ],
                "label": "Be",
                "properties": {}
            },
            {
                "species": [
                    {
                        "element": "Be",
                        "occu": 1
                    }
                ],
                "abc": [
                    0.94654961,
                    0.63552093,
                    0.61305268
                ],
                "xyz": [
                    4.441635321242739,
                    4.635620650638883,
                    4.481208500294676
                ],
                "label": "Be",
                "properties": {}
            },
            {
                "species": [
                    {
                        "element": "Al",
                        "occu": 1
                    }
                ],
                "abc": [
                    0.99829805,
                    0.50248514,
                    0.24430619
                ],
                "xyz": [
                    4.685322929133356,
                    3.6652301783722057,
                    1.785843546241672
                ],
                "label": "Al",
                "properties": {}
            },
            {
                "species": [
                    {
                        "element": "Al",
                        "occu": 1
                    }
                ],
                "abc": [
                    0.00170195,
                    0.00248514,
                    0.75569381
                ],
                "xyz": [
                    0.006371720866644101,
                    0.0181271233722054,
                    5.523777753758329
                ],
                "label": "Al",
                "properties": {}
            },
            {
                "species": [
                    {
                        "element": "B",
                        "occu": 1
                    }
                ],
                "abc": [
                    0.06922136,
                    0.86262675,
                    0.11399822
                ],
                "xyz": [
                    0.32466967577815065,
                    6.292177310499443,
                    0.8332803835844611
                ],
                "label": "B",
                "properties": {}
            },
            {
                "species": [
                    {
                        "element": "B",
                        "occu": 1
                    }
                ],
                "abc": [
                    0.93077864,
                    0.36262675,
                    0.88600178
                ],
                "xyz": [
                    4.36702497422185,
                    2.6450742554994426,
                    6.476340916415538
                ],
                "label": "B",
                "properties": {}
            },
            {
                "species": [
                    {
                        "element": "O",
                        "occu": 1
                    }
                ],
                "abc": [
                    0.78275148,
                    0.42288838,
                    0.06259074
                ],
                "xyz": [
                    3.673971851729353,
                    3.084635005244002,
                    0.4575698282123052
                ],
                "label": "O",
                "properties": {}
            },
            {
                "species": [
                    {
                        "element": "O",
                        "occu": 1
                    }
                ],
                "abc": [
                    0.21724852,
                    0.92288838,
                    0.93740926
                ],
                "xyz": [
                    1.0177227982706476,
                    6.731738060244002,
                    6.852051471787695
                ],
                "label": "O",
                "properties": {}
            },
            {
                "species": [
                    {
                        "element": "O",
                        "occu": 1
                    }
                ],
                "abc": [
                    0.78019453,
                    0.58023558,
                    0.42055953
                ],
                "xyz": [
                    3.661204009773415,
                    4.232357912875393,
                    3.074158475217789
                ],
                "label": "O",
                "properties": {}
            },
            {
                "species": [
                    {
                        "element": "O",
                        "occu": 1
                    }
                ],
                "abc": [
                    0.21980547,
                    0.08023558,
                    0.57944047
                ],
                "xyz": [
                    1.0304906402265857,
                    0.5852548578753938,
                    4.2354628247822115
                ],
                "label": "O",
                "properties": {}
            },
            {
                "species": [
                    {
                        "element": "O",
                        "occu": 1
                    }
                ],
                "abc": [
                    0.22099867,
                    0.3259977,
                    0.3183093
                ],
                "xyz": [
                    1.0366500631142108,
                    2.377894415185947,
                    2.3267129774889814
                ],
                "label": "O",
                "properties": {}
            },
            {
                "species": [
                    {
                        "element": "O",
                        "occu": 1
                    }
                ],
                "abc": [
                    0.77900133,
                    0.8259977,
                    0.6816907
                ],
                "xyz": [
                    3.6550445868857895,
                    6.024997470185947,
                    4.982908322511018
                ],
                "label": "O",
                "properties": {}
            },
            {
                "species": [
                    {
                        "element": "O",
                        "occu": 1
                    }
                ],
                "abc": [
                    0.21115405,
                    0.68225394,
                    0.15886779
                ],
                "xyz": [
                    0.9907822030984921,
                    4.976500857719573,
                    1.1612673909783437
                ],
                "label": "O",
                "properties": {}
            },
            {
                "species": [
                    {
                        "element": "O",
                        "occu": 1
                    }
                ],
                "abc": [
                    0.78884595,
                    0.18225394,
                    0.84113221
                ],
                "xyz": [
                    3.700912446901509,
                    1.3293978027195734,
                    6.1483539090216555
                ],
                "label": "O",
                "properties": {}
            },
            {
                "species": [
                    {
                        "element": "O",
                        "occu": 1
                    }
                ],
                "abc": [
                    0.71668206,
                    0.13980928,
                    0.38594224
                ],
                "xyz": [
                    3.363161067338435,
                    1.019797704410701,
                    2.821116979203109
                ],
                "label": "O",
                "properties": {}
            },
            {
                "species": [
                    {
                        "element": "O",
                        "occu": 1
                    }
                ],
                "abc": [
                    0.28331794,
                    0.63980928,
                    0.61405776
                ],
                "xyz": [
                    1.3285335826615652,
                    4.6669007594107015,
                    4.48850432079689
                ],
                "label": "O",
                "properties": {}
            },
            {
                "species": [
                    {
                        "element": "O",
                        "occu": 1
                    }
                ],
                "abc": [
                    0.76119747,
                    0.85759992,
                    0.10391021
                ],
                "xyz": [
                    3.5727124885698855,
                    6.255510576399511,
                    0.7595946850905698
                ],
                "label": "O",
                "properties": {}
            },
            {
                "species": [
                    {
                        "element": "O",
                        "occu": 1
                    }
                ],
                "abc": [
                    0.23880253,
                    0.35759992,
                    0.89608979
                ],
                "xyz": [
                    1.1189821614301152,
                    2.6084075213995113,
                    6.55002661490943
                ],
                "label": "O",
                "properties": {}
            },
            {
                "species": [
                    {
                        "element": "O",
                        "occu": 1
                    }
                ],
                "abc": [
                    0.81724343,
                    0.48734982,
                    0.7501719
                ],
                "xyz": [
                    3.8344001405606756,
                    3.5548300347514004,
                    5.48347764194639
                ],
                "label": "O",
                "properties": {}
            },
            {
                "species": [
                    {
                        "element": "O",
                        "occu": 1
                    }
                ],
                "abc": [
                    0.18275657,
                    0.98734982,
                    0.2498281
                ],
                "xyz": [
                    0.8572945094393248,
                    7.2019330897514005,
                    1.8261436580536095
                ],
                "label": "O",
                "properties": {}
            }
        ]
    },
    "spacegroup": {
        "source": "spglib",
        "symbol": "P2_1",
        "number": 4,
        "point_group": "2",
        "crystal_system": "monoclinic",
        "hall": "P 2yb"
    },
    "dielectric": {
        "epsilon_ionic": [
            [
                6.63536896,
                -3.151e-05,
                -0.06277759
            ],
            [
                -3.151e-05,
                9.32714899,
                -2.699e-05
            ],
            [
                -0.06277759,
                -2.699e-05,
                9.43573991
            ]
        ],
        "epsilon_ionic_avg": 8.466085953333332,
        "epsilon_ionic_eig": [
            6.633962343384136,
            9.437146532510525,
            9.327148984105337
        ],
        "epsilon_electronic": [
            [
                3.55906686,
                0.0,
                0.00506219
            ],
            [
                0.0,
                3.66051611,
                0.0
            ],
            [
                0.00506537,
                0.0,
                3.66712371
            ]
        ],
        "epsilon_electronic_avg": 3.6289022266666664,
        "epsilon_electronic_eig": [
            3.5588300790818344,
            3.6673604909181656,
            3.66051611
        ]
    },
    "phonon": {
        "lowest_freq": -0.053631748566777784,
        "frequency": [
            -0.053631748566777784,
            -0.03671039681006143,
            -0.031032555981679356,
            3.3052362099801176,
            3.4414878997725147,
            3.5975397803277556,
            4.04565495647983,
            4.093702664848411,
            5.012331626482842,
            5.047006657555282,
            6.004402336967524,
            6.306148195411612,
            6.3357712383159575,
            6.835550274445053,
            6.98368203062334,
            7.202930119432266,
            7.566567409511052,
            7.835134224361834,
            7.900790468816161,
            7.986003563116275,
            8.051647759895165,
            8.545454355234396,
            8.576444993651402,
            8.864052828454607,
            9.140193319044524,
            9.186886316683871,
            9.256630445890128,
            9.430476481679916,
            10.084627499902291,
            10.509575388862224,
            10.813575684847576,
            10.814670308810046,
            11.255233443939881,
            11.444755577023562,
            11.568595322991783,
            11.931031374458827,
            12.258527959680935,
            13.199757780596068,
            13.257685479409805,
            14.134773453254436,
            14.1738832407841,
            14.472740182449366,
            15.704107155784557,
            16.0225256117997,
            16.587931506841528,
            16.92352728905028,
            17.334081747306517,
            17.501436134364813,
            18.621665671293744,
            18.6506106628597,
            18.888514927647467,
            20.054721170482043,
            21.227938844229136,
            21.447560275664355,
            22.320849749235283,
            22.450636812629664,
            22.7815672648272,
            23.252323101725008,
            23.668343977043367,
            23.838121178917973,
            24.205430372338988,
            24.84319511527028,
            25.028048941232626,
            25.22377182250147,
            25.359862235023645,
            26.89128728998434,
            27.23690383278278,
            27.768997675158015,
            28.722687118475527,
            29.020552600024338,
            31.745638130307622,
            31.851572441423507
        ]
    },
    "born_effective_charge": {
        "avg_abs_trace": 2.3743216666666664,
        "tensors": [
            [
                [
                    3.33617,
                    0.23544,
                    0.15571
                ],
                [
                    0.24182,
                    3.95205,
                    0.51303
                ],
                [
                    0.21696,
                    0.5118,
                    3.74272
                ]
            ],
            [
                [
                    3.33611,
                    -0.23543,
                    0.15575
                ],
                [
                    -0.24182,
                    3.95205,
                    -0.51303
                ],
                [
                    0.21686,
                    -0.51178,
                    3.74278
                ]
            ],
            [
                [
                    3.47949,
                    -0.08141,
                    -0.15004
                ],
                [
                    -0.20352,
                    3.63449,
                    0.34492
                ],
                [
                    -0.21871,
                    0.35212,
                    3.84887
                ]
            ],
            [
                [
                    3.47955,
                    0.08138,
                    -0.14996
                ],
                [
                    0.20352,
                    3.63449,
                    -0.34492
                ],
                [
                    -0.21865,
                    -0.35217,
                    3.84901
                ]
            ],
            [
                [
                    2.08164,
                    -0.01997,
                    -0.02609
                ],
                [
                    -0.00044,
                    1.55792,
                    -0.00203
                ],
                [
                    0.02668,
                    0.00109,
                    1.56869
                ]
            ],
            [
                [
                    2.08162,
                    0.01996,
                    -0.02609
                ],
                [
                    0.00044,
                    1.55792,
                    0.00203
                ],
                [
                    0.02669,
                    -0.00109,
                    1.56872
                ]
            ],
            [
                [
                    2.70049,
                    -0.04033,
                    -0.01224
                ],
                [
                    -0.00355,
                    2.84393,
                    0.04543
                ],
                [
                    0.00724,
                    -0.063,
                    2.8505
                ]
            ],
            [
                [
                    2.7005,
                    0.04033,
                    -0.01224
                ],
                [
                    0.00355,
                    2.84393,
                    -0.04543
                ],
                [
                    0.00725,
                    0.063,
                    2.8505
                ]
            ],
            [
                [
                    2.8846,
                    0.13716,
                    0.1323
                ],
                [
                    0.00596,
                    2.1379,
                    0.03789
                ],
                [
                    0.02186,
                    0.04328,
                    2.11824
                ]
            ],
            [
                [
                    2.88461,
                    -0.13716,
                    0.13229
                ],
                [
                    -0.00596,
                    2.1379,
                    -0.03789
                ],
                [
                    0.02186,
                    -0.04328,
                    2.11821
                ]
            ],
            [
                [
                    -1.87286,
                    -0.09101,
                    -0.00098
                ],
                [
                    -0.10022,
                    -1.91466,
                    -0.08978
                ],
                [
                    0.11619,
                    -0.05305,
                    -2.16397
                ]
            ],
            [
                [
                    -1.87287,
                    0.09102,
                    -0.00098
                ],
                [
                    0.10022,
                    -1.91466,
                    0.08978
                ],
                [
                    0.11622,
                    0.05312,
                    -2.16397
                ]
            ],
            [
                [
                    -1.92887,
                    0.1744,
                    0.16782
                ],
                [
                    0.19417,
                    -2.12734,
                    -0.03074
                ],
                [
                    0.09338,
                    -0.07775,
                    -1.9797
                ]
            ],
            [
                [
                    -1.92888,
                    -0.17441,
                    0.16781
                ],
                [
                    -0.19417,
                    -2.12734,
                    0.03074
                ],
                [
                    0.09341,
                    0.07771,
                    -1.97971
                ]
            ],
            [
                [
                    -1.95435,
                    0.18392,
                    -0.13901
                ],
                [
                    0.11627,
                    -1.99144,
                    -0.02836
                ],
                [
                    -0.15812,
                    -0.01441,
                    -2.123
                ]
            ],
            [
                [
                    -1.95439,
                    -0.18394,
                    -0.13902
                ],
                [
                    -0.11627,
                    -1.99144,
                    0.02836
                ],
                [
                    -0.15811,
                    0.01441,
                    -2.12297
                ]
            ],
            [
                [
                    -1.85021,
                    0.01362,
                    0.16631
                ],
                [
                    0.12935,
                    -2.1628,
                    0.13381
                ],
                [
                    0.17671,
                    0.10623,
                    -1.88704
                ]
            ],
            [
                [
                    -1.8502,
                    -0.01358,
                    0.1663
                ],
                [
                    -0.12935,
                    -2.1628,
                    -0.13381
                ],
                [
                    0.17672,
                    -0.10623,
                    -1.88707
                ]
            ],
            [
                [
                    -2.26354,
                    0.04511,
                    -0.03723
                ],
                [
                    0.0365,
                    -2.13017,
                    -0.20261
                ],
                [
                    -0.02324,
                    -0.14537,
                    -2.11665
                ]
            ],
            [
                [
                    -2.26356,
                    -0.04513,
                    -0.03721
                ],
                [
                    -0.0365,
                    -2.13017,
                    0.20261
                ],
                [
                    -0.02325,
                    0.14541,
                    -2.1166
                ]
            ],
            [
                [
                    -2.67046,
                    -0.02918,
                    -0.10397
                ],
                [
                    -0.01909,
                    -1.74551,
                    -0.16706
                ],
                [
                    -0.07462,
                    -0.22446,
                    -1.76615
                ]
            ],
            [
                [
                    -2.67051,
                    0.02918,
                    -0.10393
                ],
                [
                    0.01909,
                    -1.74551,
                    0.16706
                ],
                [
                    -0.0746,
                    0.22441,
                    -1.76615
                ]
            ],
            [
                [
                    -1.94205,
                    0.15325,
                    -0.15265
                ],
                [
                    0.13609,
                    -2.05436,
                    0.27838
                ],
                [
                    -0.18438,
                    0.28444,
                    -2.09263
                ]
            ],
            [
                [
                    -1.942,
                    -0.15322,
                    -0.15266
                ],
                [
                    -0.13609,
                    -2.05436,
                    -0.27838
                ],
                [
                    -0.18435,
                    -0.28442,
                    -2.09264
                ]
            ]
        ]
    },
    "band_gap": 5.0607,
    "is_direct": false,
    "formula": "Y2BeAlBO7"
}