{
    "mp_id": "mp-17250",
    "nelements": 3,
    "nsites": 28,
    "elements": [
        "K",
        "O",
        "Sb"
    ],
    "structure": {
        "@module": "pymatgen.core.structure",
        "@class": "Structure",
        "charge": null,
        "lattice": {
            "matrix": [
                [
                    8.40389195,
                    0.0,
                    0.0
                ],
                [
                    0.0,
                    8.40389195,
                    0.0
                ],
                [
                    0.0,
                    0.0,
                    8.40389195
                ]
            ],
            "a": 8.40389195,
            "b": 8.40389195,
            "c": 8.40389195,
            "alpha": 90.0,
            "beta": 90.0,
            "gamma": 90.0,
            "volume": 593.5282297462776
        },
        "sites": [
            {
                "species": [
                    {
                        "element": "K",
                        "occu": 1
                    }
                ],
                "abc": [
                    0.02403135,
                    0.02403135,
                    0.02403135
                ],
                "xyz": [
                    0.2019568688126325,
                    0.2019568688126325,
                    0.2019568688126325
                ],
                "label": "K",
                "properties": {}
            },
            {
                "species": [
                    {
                        "element": "K",
                        "occu": 1
                    }
                ],
                "abc": [
                    0.47596865,
                    0.97596865,
                    0.52403135
                ],
                "xyz": [
                    3.9999891061873676,
                    8.201935081187367,
                    4.403902843812633
                ],
                "label": "K",
                "properties": {}
            },
            {
                "species": [
                    {
                        "element": "K",
                        "occu": 1
                    }
                ],
                "abc": [
                    0.52403135,
                    0.47596865,
                    0.97596865
                ],
                "xyz": [
                    4.403902843812633,
                    3.9999891061873676,
                    8.201935081187367
                ],
                "label": "K",
                "properties": {}
            },
            {
                "species": [
                    {
                        "element": "K",
                        "occu": 1
                    }
                ],
                "abc": [
                    0.97596865,
                    0.52403135,
                    0.47596865
                ],
                "xyz": [
                    8.201935081187367,
                    4.403902843812633,
                    3.9999891061873676
                ],
                "label": "K",
                "properties": {}
            },
            {
                "species": [
                    {
                        "element": "K",
                        "occu": 1
                    }
                ],
                "abc": [
                    0.21547469,
                    0.71547469,
                    0.78452531
                ],
                "xyz": [
                    1.8108260127197455,
                    6.012771987719745,
                    6.593065937280255
                ],
                "label": "K",
                "properties": {}
            },
            {
                "species": [
                    {
                        "element": "K",
                        "occu": 1
                    }
                ],
                "abc": [
                    0.28452531,
                    0.28452531,
                    0.28452531
                ],
                "xyz": [
                    2.3911199622802544,
                    2.3911199622802544,
                    2.3911199622802544
                ],
                "label": "K",
                "properties": {}
            },
            {
                "species": [
                    {
                        "element": "K",
                        "occu": 1
                    }
                ],
                "abc": [
                    0.21129795,
                    0.28870205,
                    0.71129795
                ],
                "xyz": [
                    1.7757251410565027,
                    2.4262208339434976,
                    5.977671116056502
                ],
                "label": "K",
                "properties": {}
            },
            {
                "species": [
                    {
                        "element": "K",
                        "occu": 1
                    }
                ],
                "abc": [
                    0.28870205,
                    0.71129795,
                    0.21129795
                ],
                "xyz": [
                    2.4262208339434976,
                    5.977671116056502,
                    1.7757251410565027
                ],
                "label": "K",
                "properties": {}
            },
            {
                "species": [
                    {
                        "element": "K",
                        "occu": 1
                    }
                ],
                "abc": [
                    0.71129795,
                    0.21129795,
                    0.28870205
                ],
                "xyz": [
                    5.977671116056502,
                    1.7757251410565027,
                    2.4262208339434976
                ],
                "label": "K",
                "properties": {}
            },
            {
                "species": [
                    {
                        "element": "K",
                        "occu": 1
                    }
                ],
                "abc": [
                    0.78870205,
                    0.78870205,
                    0.78870205
                ],
                "xyz": [
                    6.628166808943498,
                    6.628166808943498,
                    6.628166808943498
                ],
                "label": "K",
                "properties": {}
            },
            {
                "species": [
                    {
                        "element": "K",
                        "occu": 1
                    }
                ],
                "abc": [
                    0.71547469,
                    0.78452531,
                    0.21547469
                ],
                "xyz": [
                    6.012771987719745,
                    6.593065937280255,
                    1.8108260127197455
                ],
                "label": "K",
                "properties": {}
            },
            {
                "species": [
                    {
                        "element": "K",
                        "occu": 1
                    }
                ],
                "abc": [
                    0.78452531,
                    0.21547469,
                    0.71547469
                ],
                "xyz": [
                    6.593065937280255,
                    1.8108260127197455,
                    6.012771987719745
                ],
                "label": "K",
                "properties": {}
            },
            {
                "species": [
                    {
                        "element": "Sb",
                        "occu": 1
                    }
                ],
                "abc": [
                    0.4855191,
                    0.0144809,
                    0.9855191
                ],
                "xyz": [
                    4.080250056061245,
                    0.121695918938755,
                    8.282196031061245
                ],
                "label": "Sb",
                "properties": {}
            },
            {
                "species": [
                    {
                        "element": "Sb",
                        "occu": 1
                    }
                ],
                "abc": [
                    0.0144809,
                    0.9855191,
                    0.4855191
                ],
                "xyz": [
                    0.121695918938755,
                    8.282196031061245,
                    4.080250056061245
                ],
                "label": "Sb",
                "properties": {}
            },
            {
                "species": [
                    {
                        "element": "Sb",
                        "occu": 1
                    }
                ],
                "abc": [
                    0.9855191,
                    0.4855191,
                    0.0144809
                ],
                "xyz": [
                    8.282196031061245,
                    4.080250056061245,
                    0.121695918938755
                ],
                "label": "Sb",
                "properties": {}
            },
            {
                "species": [
                    {
                        "element": "Sb",
                        "occu": 1
                    }
                ],
                "abc": [
                    0.5144809,
                    0.5144809,
                    0.5144809
                ],
                "xyz": [
                    4.323641893938755,
                    4.323641893938755,
                    4.323641893938755
                ],
                "label": "Sb",
                "properties": {}
            },
            {
                "species": [
                    {
                        "element": "O",
                        "occu": 1
                    }
                ],
                "abc": [
                    0.49432083,
                    0.78629711,
                    0.9399571
                ],
                "xyz": [
                    4.154218843954318,
                    6.607955953037265,
                    7.899297906035345
                ],
                "label": "O",
                "properties": {}
            },
            {
                "species": [
                    {
                        "element": "O",
                        "occu": 1
                    }
                ],
                "abc": [
                    0.99432083,
                    0.71370289,
                    0.0600429
                ],
                "xyz": [
                    8.35616481895432,
                    5.997881971962736,
                    0.504594043964655
                ],
                "label": "O",
                "properties": {}
            },
            {
                "species": [
                    {
                        "element": "O",
                        "occu": 1
                    }
                ],
                "abc": [
                    0.50567917,
                    0.28629711,
                    0.5600429
                ],
                "xyz": [
                    4.249673106045681,
                    2.4060099780372646,
                    4.706540018964655
                ],
                "label": "O",
                "properties": {}
            },
            {
                "species": [
                    {
                        "element": "O",
                        "occu": 1
                    }
                ],
                "abc": [
                    0.71370289,
                    0.0600429,
                    0.99432083
                ],
                "xyz": [
                    5.997881971962736,
                    0.504594043964655,
                    8.35616481895432
                ],
                "label": "O",
                "properties": {}
            },
            {
                "species": [
                    {
                        "element": "O",
                        "occu": 1
                    }
                ],
                "abc": [
                    0.78629711,
                    0.9399571,
                    0.49432083
                ],
                "xyz": [
                    6.607955953037265,
                    7.899297906035345,
                    4.154218843954318
                ],
                "label": "O",
                "properties": {}
            },
            {
                "species": [
                    {
                        "element": "O",
                        "occu": 1
                    }
                ],
                "abc": [
                    0.9399571,
                    0.49432083,
                    0.78629711
                ],
                "xyz": [
                    7.899297906035345,
                    4.154218843954318,
                    6.607955953037265
                ],
                "label": "O",
                "properties": {}
            },
            {
                "species": [
                    {
                        "element": "O",
                        "occu": 1
                    }
                ],
                "abc": [
                    0.28629711,
                    0.5600429,
                    0.50567917
                ],
                "xyz": [
                    2.4060099780372646,
                    4.706540018964655,
                    4.249673106045681
                ],
                "label": "O",
                "properties": {}
            },
            {
                "species": [
                    {
                        "element": "O",
                        "occu": 1
                    }
                ],
                "abc": [
                    0.21370289,
                    0.4399571,
                    0.00567917
                ],
                "xyz": [
                    1.7959359969627355,
                    3.697351931035345,
                    0.0477271310456815
                ],
                "label": "O",
                "properties": {}
            },
            {
                "species": [
                    {
                        "element": "O",
                        "occu": 1
                    }
                ],
                "abc": [
                    0.4399571,
                    0.00567917,
                    0.21370289
                ],
                "xyz": [
                    3.697351931035345,
                    0.0477271310456815,
                    1.7959359969627355
                ],
                "label": "O",
                "properties": {}
            },
            {
                "species": [
                    {
                        "element": "O",
                        "occu": 1
                    }
                ],
                "abc": [
                    0.00567917,
                    0.21370289,
                    0.4399571
                ],
                "xyz": [
                    0.0477271310456815,
                    1.7959359969627355,
                    3.697351931035345
                ],
                "label": "O",
                "properties": {}
            },
            {
                "species": [
                    {
                        "element": "O",
                        "occu": 1
                    }
                ],
                "abc": [
                    0.5600429,
                    0.50567917,
                    0.28629711
                ],
                "xyz": [
                    4.706540018964655,
                    4.249673106045681,
                    2.4060099780372646
                ],
                "label": "O",
                "properties": {}
            },
            {
                "species": [
                    {
                        "element": "O",
                        "occu": 1
                    }
                ],
                "abc": [
                    0.0600429,
                    0.99432083,
                    0.71370289
                ],
                "xyz": [
                    0.504594043964655,
                    8.35616481895432,
                    5.997881971962736
                ],
                "label": "O",
                "properties": {}
            }
        ]
    },
    "spacegroup": {
        "source": "spglib",
        "symbol": "P2_13",
        "number": 198,
        "point_group": "23",
        "crystal_system": "cubic",
        "hall": "P 2ac 2ab 3"
    },
    "dielectric": {
        "epsilon_ionic": [
            [
                4.24929105,
                -1.9e-07,
                -1.8e-07
            ],
            [
                -1.9e-07,
                4.24931237,
                -2e-07
            ],
            [
                -1.8e-07,
                -2e-07,
                4.24931483
            ]
        ],
        "epsilon_ionic_avg": 4.249306083333333,
        "epsilon_ionic_eig": [
            4.249291046917465,
            4.2493123557958,
            4.249314847286733
        ],
        "epsilon_electronic": [
            [
                3.08091906,
                0.0,
                0.0
            ],
            [
                0.0,
                3.08091906,
                0.0
            ],
            [
                0.0,
                -0.0,
                3.08091906
            ]
        ],
        "epsilon_electronic_avg": 3.08091906,
        "epsilon_electronic_eig": [
            3.08091906,
            3.08091906,
            3.08091906
        ]
    },
    "phonon": {
        "lowest_freq": -0.12609019846044123,
        "frequency": [
            -0.12609019846044123,
            -0.12609019846044123,
            -0.12609019846044123,
            1.6094348271899288,
            1.6094348271899288,
            1.9834239980712698,
            1.9834239980712698,
            1.9834239980712698,
            1.989365370830027,
            2.167029068809428,
            2.167029068809428,
            2.167029068809428,
            2.6553211262678995,
            2.6553211262678995,
            2.6553211262678995,
            2.7580349811779437,
            2.7580349811779437,
            2.8124250250066622,
            2.853244749376916,
            2.853244749376916,
            2.853244749376916,
            3.180308004994765,
            3.180308004994765,
            3.180308004994765,
            3.450236922726322,
            3.450236922726322,
            3.6848543383159864,
            3.701762965594676,
            3.701762965594676,
            3.701762965594676,
            3.8634707554132968,
            3.8634707554132968,
            3.8634707554132968,
            4.21133109591581,
            4.21133109591581,
            4.21133109591581,
            4.285817531231789,
            4.285817531231789,
            4.285817531231789,
            4.549622596755841,
            4.5859153718445915,
            4.5859153718445915,
            4.5859153718445915,
            4.715093517253461,
            4.715093517253461,
            4.862538870769761,
            4.862538870769761,
            4.862538870769761,
            5.084448926658161,
            5.084448926658161,
            5.084448926658161,
            5.153147716725382,
            5.289476987333878,
            5.289476987333878,
            5.289476987333878,
            5.344094390281765,
            5.344094390281765,
            5.3967830045832565,
            5.3967830045832565,
            5.3967830045832565,
            8.066559812154939,
            8.066559812154939,
            8.148803879527948,
            8.148803879527948,
            8.148803879527948,
            9.074139802898266,
            9.074139802898266,
            9.074139802898266,
            9.188390216078849,
            9.649759418731495,
            9.649759418731495,
            9.649759418731495,
            17.94325597327073,
            17.94325597327073,
            18.186538174729392,
            18.186538174729392,
            18.186538174729392,
            18.58956269499266,
            18.58956269499266,
            18.58956269499266,
            19.637989898534787,
            19.889409103413925,
            19.889409103413925,
            19.889409103413925
        ]
    },
    "born_effective_charge": {
        "avg_abs_trace": 1.4875790476190478,
        "tensors": [
            [
                [
                    1.28943,
                    -0.04643,
                    0.0256
                ],
                [
                    0.0256,
                    1.28943,
                    -0.04645
                ],
                [
                    -0.04644,
                    0.0256,
                    1.28944
                ]
            ],
            [
                [
                    1.28948,
                    -0.04651,
                    -0.02547
                ],
                [
                    0.02547,
                    1.28948,
                    0.0465
                ],
                [
                    0.04644,
                    -0.0256,
                    1.28944
                ]
            ],
            [
                [
                    1.28943,
                    0.04643,
                    -0.0256
                ],
                [
                    -0.02547,
                    1.28948,
                    -0.0465
                ],
                [
                    0.0465,
                    0.02547,
                    1.28948
                ]
            ],
            [
                [
                    1.28948,
                    0.04651,
                    0.02547
                ],
                [
                    -0.0256,
                    1.28943,
                    0.04645
                ],
                [
                    -0.0465,
                    -0.02547,
                    1.28948
                ]
            ],
            [
                [
                    1.11633,
                    0.01717,
                    -0.06035
                ],
                [
                    0.06035,
                    1.11633,
                    -0.01717
                ],
                [
                    -0.0172,
                    -0.06031,
                    1.1165
                ]
            ],
            [
                [
                    1.1165,
                    0.0172,
                    0.06031
                ],
                [
                    0.06031,
                    1.1165,
                    0.0172
                ],
                [
                    0.0172,
                    0.06031,
                    1.1165
                ]
            ],
            [
                [
                    1.09623,
                    0.08042,
                    -0.09674
                ],
                [
                    0.09665,
                    1.09627,
                    0.08038
                ],
                [
                    -0.08041,
                    0.09673,
                    1.09623
                ]
            ],
            [
                [
                    1.09626,
                    0.08039,
                    0.09666
                ],
                [
                    0.09674,
                    1.09623,
                    -0.08042
                ],
                [
                    0.08041,
                    -0.09673,
                    1.09623
                ]
            ],
            [
                [
                    1.09623,
                    -0.08042,
                    0.09674
                ],
                [
                    -0.09674,
                    1.09623,
                    0.08042
                ],
                [
                    0.08037,
                    0.09664,
                    1.09627
                ]
            ],
            [
                [
                    1.09626,
                    -0.08039,
                    -0.09666
                ],
                [
                    -0.09665,
                    1.09627,
                    -0.08038
                ],
                [
                    -0.08037,
                    -0.09664,
                    1.09627
                ]
            ],
            [
                [
                    1.11633,
                    -0.01717,
                    0.06035
                ],
                [
                    -0.06031,
                    1.1165,
                    -0.0172
                ],
                [
                    0.01717,
                    -0.06035,
                    1.11634
                ]
            ],
            [
                [
                    1.1165,
                    -0.0172,
                    -0.06031
                ],
                [
                    -0.06035,
                    1.11633,
                    0.01717
                ],
                [
                    -0.01717,
                    0.06035,
                    1.11634
                ]
            ],
            [
                [
                    1.7046,
                    0.17235,
                    -0.22191
                ],
                [
                    0.22165,
                    1.70422,
                    0.17218
                ],
                [
                    -0.17235,
                    0.2219,
                    1.70459
                ]
            ],
            [
                [
                    1.70422,
                    0.17217,
                    0.22166
                ],
                [
                    0.2219,
                    1.70459,
                    -0.17235
                ],
                [
                    0.17235,
                    -0.2219,
                    1.70459
                ]
            ],
            [
                [
                    1.7046,
                    -0.17235,
                    0.22191
                ],
                [
                    -0.2219,
                    1.70459,
                    0.17235
                ],
                [
                    0.17217,
                    0.22167,
                    1.70421
                ]
            ],
            [
                [
                    1.70422,
                    -0.17217,
                    -0.22166
                ],
                [
                    -0.22165,
                    1.70422,
                    -0.17218
                ],
                [
                    -0.17217,
                    -0.22167,
                    1.70421
                ]
            ],
            [
                [
                    -1.28659,
                    -0.1808,
                    -0.04508
                ],
                [
                    0.10482,
                    -2.59936,
                    -0.14204
                ],
                [
                    -0.00172,
                    -0.49242,
                    -1.32059
                ]
            ],
            [
                [
                    -1.28659,
                    0.1808,
                    0.04508
                ],
                [
                    -0.10449,
                    -2.59948,
                    -0.1423
                ],
                [
                    0.00136,
                    -0.49164,
                    -1.32039
                ]
            ],
            [
                [
                    -1.28664,
                    0.1816,
                    -0.045
                ],
                [
                    -0.10482,
                    -2.59936,
                    0.14204
                ],
                [
                    -0.00136,
                    0.49164,
                    -1.32039
                ]
            ],
            [
                [
                    -2.59947,
                    -0.14231,
                    -0.10452
                ],
                [
                    -0.49164,
                    -1.32038,
                    0.00137
                ],
                [
                    0.18079,
                    0.04508,
                    -1.28659
                ]
            ],
            [
                [
                    -2.59936,
                    -0.14205,
                    0.10481
                ],
                [
                    -0.49243,
                    -1.3206,
                    -0.0017
                ],
                [
                    -0.18079,
                    -0.04508,
                    -1.28659
                ]
            ],
            [
                [
                    -1.3206,
                    -0.00171,
                    -0.49244
                ],
                [
                    -0.04508,
                    -1.28657,
                    -0.1808
                ],
                [
                    -0.14205,
                    0.10482,
                    -2.59938
                ]
            ],
            [
                [
                    -2.59936,
                    0.14205,
                    -0.10481
                ],
                [
                    0.49164,
                    -1.32038,
                    -0.00137
                ],
                [
                    0.18158,
                    -0.045,
                    -1.28665
                ]
            ],
            [
                [
                    -2.59947,
                    0.14231,
                    0.10452
                ],
                [
                    0.49243,
                    -1.3206,
                    0.0017
                ],
                [
                    -0.18158,
                    0.045,
                    -1.28665
                ]
            ],
            [
                [
                    -1.3206,
                    0.00171,
                    0.49244
                ],
                [
                    0.045,
                    -1.28666,
                    -0.18159
                ],
                [
                    0.1423,
                    0.10452,
                    -2.59947
                ]
            ],
            [
                [
                    -1.28664,
                    -0.1816,
                    0.045
                ],
                [
                    0.10449,
                    -2.59948,
                    0.1423
                ],
                [
                    0.00172,
                    0.49242,
                    -1.32059
                ]
            ],
            [
                [
                    -1.32038,
                    -0.00136,
                    0.49165
                ],
                [
                    -0.045,
                    -1.28666,
                    0.18159
                ],
                [
                    0.14205,
                    -0.10482,
                    -2.59938
                ]
            ],
            [
                [
                    -1.32038,
                    0.00136,
                    -0.49165
                ],
                [
                    0.04508,
                    -1.28657,
                    0.1808
                ],
                [
                    -0.1423,
                    -0.10452,
                    -2.59947
                ]
            ]
        ]
    },
    "band_gap": 3.2584,
    "is_direct": false,
    "formula": "K3SbO3"
}