{
    "mp_id": "mp-1192552",
    "nelements": 3,
    "nsites": 30,
    "elements": [
        "As",
        "K",
        "O"
    ],
    "structure": {
        "@module": "pymatgen.core.structure",
        "@class": "Structure",
        "charge": null,
        "lattice": {
            "matrix": [
                [
                    7.64734704,
                    0.00157189,
                    -0.00710607
                ],
                [
                    2.250203,
                    7.31537961,
                    0.00842915
                ],
                [
                    3.8034049,
                    -0.21125421,
                    9.71523124
                ]
            ],
            "a": 7.647350503100127,
            "b": 7.653643800843,
            "c": 10.435335894031331,
            "alpha": 84.90354406039103,
            "beta": 68.678290758799,
            "gamma": 72.89046084567403,
            "volume": 543.6819742628812
        },
        "sites": [
            {
                "species": [
                    {
                        "element": "K",
                        "occu": 1
                    }
                ],
                "abc": [
                    0.09117114,
                    0.89927072,
                    0.16094208
                ],
                "xyz": [
                    3.3328869152567773,
                    6.544650307995116,
                    1.5705217427332472
                ],
                "label": "K",
                "properties": {}
            },
            {
                "species": [
                    {
                        "element": "K",
                        "occu": 1
                    }
                ],
                "abc": [
                    0.90882886,
                    0.10072928,
                    0.83905792
                ],
                "xyz": [
                    10.368068024743222,
                    0.5610469820048831,
                    8.146032577266752
                ],
                "label": "K",
                "properties": {}
            },
            {
                "species": [
                    {
                        "element": "K",
                        "occu": 1
                    }
                ],
                "abc": [
                    0.24541109,
                    0.76247511,
                    0.49950808
                ],
                "xyz": [
                    5.492299031703595,
                    5.4726574472357505,
                    4.857519612137559
                ],
                "label": "K",
                "properties": {}
            },
            {
                "species": [
                    {
                        "element": "K",
                        "occu": 1
                    }
                ],
                "abc": [
                    0.75458891,
                    0.23752489,
                    0.50049192
                ],
                "xyz": [
                    8.208655908296404,
                    1.6330398427642494,
                    4.859034707862441
                ],
                "label": "K",
                "properties": {}
            },
            {
                "species": [
                    {
                        "element": "K",
                        "occu": 1
                    }
                ],
                "abc": [
                    0.73456587,
                    0.5593124,
                    0.16170794
                ],
                "xyz": [
                    7.491087343411629,
                    4.058575700210131,
                    1.5705246820686745
                ],
                "label": "K",
                "properties": {}
            },
            {
                "species": [
                    {
                        "element": "K",
                        "occu": 1
                    }
                ],
                "abc": [
                    0.26543413,
                    0.4406876,
                    0.83829206
                ],
                "xyz": [
                    6.209867596588369,
                    3.047121589789869,
                    8.146029637931324
                ],
                "label": "K",
                "properties": {}
            },
            {
                "species": [
                    {
                        "element": "As",
                        "occu": 1
                    }
                ],
                "abc": [
                    0.52436749,
                    0.02337481,
                    0.20259677
                ],
                "xyz": [
                    4.8331757878523325,
                    0.1290204358805785,
                    1.964745306717142
                ],
                "label": "As",
                "properties": {}
            },
            {
                "species": [
                    {
                        "element": "As",
                        "occu": 1
                    }
                ],
                "abc": [
                    0.47563251,
                    0.97662519,
                    0.79740323
                ],
                "xyz": [
                    8.867779152147667,
                    6.976676854119422,
                    7.751809013282858
                ],
                "label": "As",
                "properties": {}
            },
            {
                "species": [
                    {
                        "element": "As",
                        "occu": 1
                    }
                ],
                "abc": [
                    0.26891957,
                    0.26423272,
                    0.47598071
                ],
                "xyz": [
                    4.461445901599211,
                    1.832832435299437,
                    4.624578959372378
                ],
                "label": "As",
                "properties": {}
            },
            {
                "species": [
                    {
                        "element": "As",
                        "occu": 1
                    }
                ],
                "abc": [
                    0.73108043,
                    0.73576728,
                    0.52401929
                ],
                "xyz": [
                    9.239509038400788,
                    5.272864854700563,
                    5.091975360627622
                ],
                "label": "As",
                "properties": {}
            },
            {
                "species": [
                    {
                        "element": "As",
                        "occu": 1
                    }
                ],
                "abc": [
                    0.16889158,
                    0.36236665,
                    0.20582723
                ],
                "xyz": [
                    2.8898153424593005,
                    2.6076332128695547,
                    2.001513422396622
                ],
                "label": "As",
                "properties": {}
            },
            {
                "species": [
                    {
                        "element": "As",
                        "occu": 1
                    }
                ],
                "abc": [
                    0.83110842,
                    0.63763335,
                    0.79417277
                ],
                "xyz": [
                    10.811139597540699,
                    4.498064077130445,
                    7.7150408976033775
                ],
                "label": "As",
                "properties": {}
            },
            {
                "species": [
                    {
                        "element": "O",
                        "occu": 1
                    }
                ],
                "abc": [
                    0.40229848,
                    0.86680691,
                    0.23882215
                ],
                "xyz": [
                    5.935344935065764,
                    6.2912017795500805,
                    2.3246600967896187
                ],
                "label": "O",
                "properties": {}
            },
            {
                "species": [
                    {
                        "element": "O",
                        "occu": 1
                    }
                ],
                "abc": [
                    0.59770152,
                    0.13319309,
                    0.76117785
                ],
                "xyz": [
                    7.765610004934236,
                    0.8144955104499191,
                    7.391894223210381
                ],
                "label": "O",
                "properties": {}
            },
            {
                "species": [
                    {
                        "element": "O",
                        "occu": 1
                    }
                ],
                "abc": [
                    0.76005356,
                    0.96135117,
                    0.10658309
                ],
                "xyz": [
                    8.381007275858114,
                    7.011327341180763,
                    1.038181745037228
                ],
                "label": "O",
                "properties": {}
            },
            {
                "species": [
                    {
                        "element": "O",
                        "occu": 1
                    }
                ],
                "abc": [
                    0.23994644,
                    0.03864883,
                    0.89341691
                ],
                "xyz": [
                    5.319947664141886,
                    0.09436994881923683,
                    8.678372574962772
                ],
                "label": "O",
                "properties": {}
            },
            {
                "species": [
                    {
                        "element": "O",
                        "occu": 1
                    }
                ],
                "abc": [
                    0.50001261,
                    0.12868635,
                    0.35842025
                ],
                "xyz": [
                    5.476557698984449,
                    0.866457678935104,
                    3.47966720178817
                ],
                "label": "O",
                "properties": {}
            },
            {
                "species": [
                    {
                        "element": "O",
                        "occu": 1
                    }
                ],
                "abc": [
                    0.49998739,
                    0.87131365,
                    0.64157975
                ],
                "xyz": [
                    8.22439724101555,
                    6.239239611064896,
                    6.23688711821183
                ],
                "label": "O",
                "properties": {}
            },
            {
                "species": [
                    {
                        "element": "O",
                        "occu": 1
                    }
                ],
                "abc": [
                    0.4114827,
                    0.21725799,
                    0.12062683
                ],
                "xyz": [
                    4.094418265021645,
                    1.5644885500204324,
                    1.1708248225145885
                ],
                "label": "O",
                "properties": {}
            },
            {
                "species": [
                    {
                        "element": "O",
                        "occu": 1
                    }
                ],
                "abc": [
                    0.5885173,
                    0.78274201,
                    0.87937317
                ],
                "xyz": [
                    9.606536674978354,
                    5.5412087399795675,
                    8.545729497485413
                ],
                "label": "O",
                "properties": {}
            },
            {
                "species": [
                    {
                        "element": "O",
                        "occu": 1
                    }
                ],
                "abc": [
                    0.11294741,
                    0.14048128,
                    0.54396947
                ],
                "xyz": [
                    3.248795586887409,
                    0.912935591554037,
                    5.285170714129776
                ],
                "label": "O",
                "properties": {}
            },
            {
                "species": [
                    {
                        "element": "O",
                        "occu": 1
                    }
                ],
                "abc": [
                    0.88705259,
                    0.85951872,
                    0.45603053
                ],
                "xyz": [
                    10.452159353112592,
                    6.192761698445963,
                    4.431383605870224
                ],
                "label": "O",
                "properties": {}
            },
            {
                "species": [
                    {
                        "element": "O",
                        "occu": 1
                    }
                ],
                "abc": [
                    0.33240627,
                    0.38097707,
                    0.56999374
                ],
                "xyz": [
                    5.567218834492477,
                    2.6671008185986476,
                    5.53847020009897
                ],
                "label": "O",
                "properties": {}
            },
            {
                "species": [
                    {
                        "element": "O",
                        "occu": 1
                    }
                ],
                "abc": [
                    0.66759373,
                    0.61902293,
                    0.43000626
                ],
                "xyz": [
                    8.133736105507523,
                    4.438596471401352,
                    4.178084119901031
                ],
                "label": "O",
                "properties": {}
            },
            {
                "species": [
                    {
                        "element": "O",
                        "occu": 1
                    }
                ],
                "abc": [
                    0.19152322,
                    0.43048123,
                    0.3582022
                ],
                "xyz": [
                    3.7957026874187383,
                    3.073762943082744,
                    3.482284817128637
                ],
                "label": "O",
                "properties": {}
            },
            {
                "species": [
                    {
                        "element": "O",
                        "occu": 1
                    }
                ],
                "abc": [
                    0.80847678,
                    0.56951877,
                    0.6417978
                ],
                "xyz": [
                    9.90525225258126,
                    4.031934346917256,
                    6.234269502871363
                ],
                "label": "O",
                "properties": {}
            },
            {
                "species": [
                    {
                        "element": "O",
                        "occu": 1
                    }
                ],
                "abc": [
                    0.00094791,
                    0.25024396,
                    0.24306511
                ],
                "xyz": [
                    1.4948237366496056,
                    1.7792825247282924,
                    2.3635363579866566
                ],
                "label": "O",
                "properties": {}
            },
            {
                "species": [
                    {
                        "element": "O",
                        "occu": 1
                    }
                ],
                "abc": [
                    0.99905209,
                    0.74975604,
                    0.75693489
                ],
                "xyz": [
                    12.206131203350392,
                    5.326414765271707,
                    7.353017962013343
                ],
                "label": "O",
                "properties": {}
            },
            {
                "species": [
                    {
                        "element": "O",
                        "occu": 1
                    }
                ],
                "abc": [
                    0.14401362,
                    0.54442415,
                    0.10751055
                ],
                "xyz": [
                    2.7352931389008295,
                    3.960183643363808,
                    1.0480555159488811
                ],
                "label": "O",
                "properties": {}
            },
            {
                "species": [
                    {
                        "element": "O",
                        "occu": 1
                    }
                ],
                "abc": [
                    0.85598638,
                    0.45557585,
                    0.89248945
                ],
                "xyz": [
                    10.96566180109917,
                    3.1455136466361924,
                    8.668498804051119
                ],
                "label": "O",
                "properties": {}
            }
        ]
    },
    "spacegroup": {
        "source": "spglib",
        "symbol": "P-1",
        "number": 2,
        "point_group": "-1",
        "crystal_system": "triclinic",
        "hall": "-P 1"
    },
    "dielectric": {
        "epsilon_ionic": [
            [
                3.28552021,
                -0.03662793,
                -0.2071267
            ],
            [
                -0.03662793,
                3.83651353,
                -0.10544737
            ],
            [
                -0.2071267,
                -0.10544737,
                3.46565278
            ]
        ],
        "epsilon_ionic_avg": 3.5292288399999987,
        "epsilon_ionic_eig": [
            3.138356952640562,
            3.58428513797585,
            3.8650444293835844
        ],
        "epsilon_electronic": [
            [
                2.49884611,
                -0.08703612,
                0.02395747
            ],
            [
                -0.08703558,
                2.52943541,
                0.03238635
            ],
            [
                0.023958,
                0.03238591,
                2.55258308
            ]
        ],
        "epsilon_electronic_avg": 2.526954866666667,
        "epsilon_electronic_eig": [
            2.414611339609549,
            2.6045463155717634,
            2.5617069448186873
        ]
    },
    "phonon": {
        "lowest_freq": -0.09273520085581019,
        "frequency": [
            -0.09273520085581019,
            -0.0645832479677387,
            -0.036059782255260325,
            1.036353807072745,
            1.2715024319200943,
            1.2800781334907938,
            1.3675069733885472,
            1.5600799799282883,
            1.6414507697825491,
            1.6955633086149757,
            1.8768211582563878,
            2.089731225600234,
            2.198904008695861,
            2.432731734431777,
            2.6960751029673187,
            2.703613982145058,
            2.805697507807885,
            3.0269502921495883,
            3.1319227138354417,
            3.2690486393187723,
            3.3066293264526774,
            3.4594335122610422,
            3.5710948770789663,
            3.6863216125810387,
            3.7473959228136,
            3.9343220235848886,
            4.021133287385448,
            4.138150318311073,
            4.247862330655478,
            4.342349920702688,
            4.486255890483369,
            4.509844543170847,
            4.806150160464147,
            4.898838254133787,
            4.9553354306586535,
            5.130113559895148,
            5.661235246293431,
            5.737523811635921,
            5.7988059858262595,
            5.79978850912535,
            6.4999581798910295,
            6.66182309200308,
            6.757341483749768,
            7.120385422408653,
            7.168818017790537,
            7.252037258697276,
            7.3455983185823515,
            7.406669525584949,
            7.478950893367962,
            7.505682512017651,
            7.831500959506902,
            7.873656144636298,
            8.468192777596494,
            8.663353265567014,
            9.4037471275235,
            9.587519164619483,
            9.7070334480291,
            9.826793712474426,
            10.100985296778841,
            10.394110515723419,
            10.453662746515722,
            10.592384061741496,
            10.634110261573849,
            10.751564367998695,
            11.65675734602965,
            11.726418427113028,
            15.699571885366074,
            15.797025288399606,
            15.962847746762893,
            16.197997128812904,
            16.363645672205063,
            16.430093762156382,
            19.649577446442905,
            19.676850267979997,
            22.18091452801816,
            22.280362460806135,
            22.31547661034752,
            22.3224783597842,
            26.069160393983825,
            26.203593302637614,
            26.22428732067756,
            26.266533008790663,
            26.835618667959785,
            26.857883710802884,
            27.478658305188585,
            27.503868944690165,
            27.647543604010316,
            27.768775620331184,
            27.79613572318645,
            27.941891622767113
        ]
    },
    "born_effective_charge": {
        "avg_abs_trace": 1.6415245555555558,
        "tensors": [
            [
                [
                    1.34586,
                    0.13455,
                    -0.0378
                ],
                [
                    0.1051,
                    1.24449,
                    0.04477
                ],
                [
                    -0.10858,
                    -0.10165,
                    1.21971
                ]
            ],
            [
                [
                    1.34586,
                    0.13453,
                    -0.03789
                ],
                [
                    0.10515,
                    1.24447,
                    0.04479
                ],
                [
                    -0.1087,
                    -0.1017,
                    1.21969
                ]
            ],
            [
                [
                    1.32824,
                    0.11088,
                    -0.22109
                ],
                [
                    0.11208,
                    1.25805,
                    -0.17155
                ],
                [
                    -0.05694,
                    -0.04849,
                    0.98854
                ]
            ],
            [
                [
                    1.32824,
                    0.11086,
                    -0.22111
                ],
                [
                    0.11202,
                    1.25801,
                    -0.17161
                ],
                [
                    -0.05696,
                    -0.04854,
                    0.98851
                ]
            ],
            [
                [
                    1.12965,
                    -0.14719,
                    0.18476
                ],
                [
                    -0.19379,
                    1.19446,
                    0.02602
                ],
                [
                    0.13831,
                    0.09069,
                    1.38872
                ]
            ],
            [
                [
                    1.12963,
                    -0.14727,
                    0.18466
                ],
                [
                    -0.19384,
                    1.19453,
                    0.02613
                ],
                [
                    0.13824,
                    0.09063,
                    1.38873
                ]
            ],
            [
                [
                    2.53093,
                    -0.64373,
                    -0.03155
                ],
                [
                    -0.03981,
                    3.1208,
                    0.18822
                ],
                [
                    0.08266,
                    0.43881,
                    2.97058
                ]
            ],
            [
                [
                    2.53069,
                    -0.64325,
                    -0.03231
                ],
                [
                    -0.03872,
                    3.1211,
                    0.19055
                ],
                [
                    0.08264,
                    0.43876,
                    2.97072
                ]
            ],
            [
                [
                    2.63266,
                    -0.24173,
                    0.31747
                ],
                [
                    -0.23843,
                    2.7355,
                    0.27378
                ],
                [
                    -0.14131,
                    -0.05833,
                    3.17862
                ]
            ],
            [
                [
                    2.6317,
                    -0.24141,
                    0.31779
                ],
                [
                    -0.23752,
                    2.73516,
                    0.27289
                ],
                [
                    -0.14066,
                    -0.05936,
                    3.1779
                ]
            ],
            [
                [
                    2.94033,
                    -0.25478,
                    0.11938
                ],
                [
                    -0.75817,
                    2.79023,
                    0.00204
                ],
                [
                    0.38358,
                    0.01969,
                    2.93783
                ]
            ],
            [
                [
                    2.94038,
                    -0.2547,
                    0.11939
                ],
                [
                    -0.76023,
                    2.79117,
                    0.0028
                ],
                [
                    0.38313,
                    0.01953,
                    2.93692
                ]
            ],
            [
                [
                    -1.27943,
                    -0.08666,
                    0.12611
                ],
                [
                    -0.34037,
                    -1.4377,
                    0.10719
                ],
                [
                    0.06627,
                    0.01844,
                    -1.08932
                ]
            ],
            [
                [
                    -1.27884,
                    -0.08632,
                    0.12581
                ],
                [
                    -0.34053,
                    -1.43784,
                    0.10684
                ],
                [
                    0.06542,
                    0.01726,
                    -1.08915
                ]
            ],
            [
                [
                    -1.53376,
                    0.22935,
                    0.33286
                ],
                [
                    0.24792,
                    -1.11096,
                    -0.16044
                ],
                [
                    0.35398,
                    -0.10669,
                    -1.34991
                ]
            ],
            [
                [
                    -1.53318,
                    0.22912,
                    0.33273
                ],
                [
                    0.24732,
                    -1.11103,
                    -0.16027
                ],
                [
                    0.35564,
                    -0.10754,
                    -1.35159
                ]
            ],
            [
                [
                    -1.1035,
                    0.2169,
                    0.08396
                ],
                [
                    0.17668,
                    -1.35946,
                    -0.80371
                ],
                [
                    0.06702,
                    -0.76539,
                    -2.05832
                ]
            ],
            [
                [
                    -1.10272,
                    0.21687,
                    0.08442
                ],
                [
                    0.17807,
                    -1.36047,
                    -0.80517
                ],
                [
                    0.06576,
                    -0.76458,
                    -2.05742
                ]
            ],
            [
                [
                    -1.47354,
                    0.92365,
                    0.04474
                ],
                [
                    0.88505,
                    -1.91806,
                    -0.03072
                ],
                [
                    0.04338,
                    -0.00793,
                    -1.10966
                ]
            ],
            [
                [
                    -1.47346,
                    0.92286,
                    0.04476
                ],
                [
                    0.88458,
                    -1.91755,
                    -0.03082
                ],
                [
                    0.04205,
                    -0.00694,
                    -1.10986
                ]
            ],
            [
                [
                    -1.30094,
                    -0.19883,
                    0.14109
                ],
                [
                    -0.19327,
                    -1.19684,
                    0.09253
                ],
                [
                    0.3368,
                    0.2418,
                    -1.17621
                ]
            ],
            [
                [
                    -1.30085,
                    -0.19872,
                    0.14119
                ],
                [
                    -0.19322,
                    -1.19643,
                    0.09259
                ],
                [
                    0.33691,
                    0.24169,
                    -1.17668
                ]
            ],
            [
                [
                    -1.36425,
                    -0.18057,
                    -0.29927
                ],
                [
                    -0.1788,
                    -1.2619,
                    -0.23237
                ],
                [
                    -0.40382,
                    -0.32067,
                    -1.38398
                ]
            ],
            [
                [
                    -1.36502,
                    -0.18084,
                    -0.29969
                ],
                [
                    -0.17865,
                    -1.2613,
                    -0.23162
                ],
                [
                    -0.4048,
                    -0.32107,
                    -1.38468
                ]
            ],
            [
                [
                    -1.25896,
                    0.22537,
                    -0.74246
                ],
                [
                    0.23781,
                    -1.22403,
                    0.24494
                ],
                [
                    -0.69894,
                    0.22247,
                    -2.01538
                ]
            ],
            [
                [
                    -1.25833,
                    0.22424,
                    -0.74241
                ],
                [
                    0.23653,
                    -1.22469,
                    0.24209
                ],
                [
                    -0.69898,
                    0.22324,
                    -2.01433
                ]
            ],
            [
                [
                    -1.53675,
                    -0.25317,
                    0.16066
                ],
                [
                    -0.00353,
                    -1.21572,
                    0.05793
                ],
                [
                    0.0465,
                    0.03344,
                    -1.07651
                ]
            ],
            [
                [
                    -1.53725,
                    -0.25363,
                    0.16095
                ],
                [
                    -0.00353,
                    -1.21554,
                    0.05807
                ],
                [
                    0.04871,
                    0.0345,
                    -1.07734
                ]
            ],
            [
                [
                    -1.05679,
                    0.1667,
                    -0.17857
                ],
                [
                    0.18184,
                    -1.61927,
                    0.36214
                ],
                [
                    -0.10857,
                    0.3444,
                    -1.42318
                ]
            ],
            [
                [
                    -1.05661,
                    0.16694,
                    -0.17856
                ],
                [
                    0.18224,
                    -1.61917,
                    0.36199
                ],
                [
                    -0.10876,
                    0.34355,
                    -1.42294
                ]
            ]
        ]
    },
    "band_gap": 3.2521000000000004,
    "is_direct": false,
    "formula": "KAsO3"
}