{
    "mp_id": "mp-19432",
    "nelements": 4,
    "nsites": 20,
    "elements": [
        "K",
        "Na",
        "O",
        "V"
    ],
    "structure": {
        "@module": "pymatgen.core.structure",
        "@class": "Structure",
        "charge": null,
        "lattice": {
            "matrix": [
                [
                    5.28934804,
                    -5.01565387,
                    0.00297762
                ],
                [
                    5.28934804,
                    5.01565387,
                    0.00297762
                ],
                [
                    -1.50429237,
                    0.0,
                    5.65231445
                ]
            ],
            "a": 7.289306914797777,
            "b": 7.289306914797777,
            "c": 5.849064384678888,
            "alpha": 100.73266503567162,
            "beta": 100.73266503567162,
            "gamma": 86.95722873540848,
            "volume": 299.9515252499779
        },
        "sites": [
            {
                "species": [
                    {
                        "element": "K",
                        "occu": 1
                    }
                ],
                "abc": [
                    0.19645599,
                    0.80354401,
                    0.75
                ],
                "xyz": [
                    4.161128762500001,
                    3.044943376943638,
                    4.242213457500001
                ],
                "label": "K",
                "properties": {}
            },
            {
                "species": [
                    {
                        "element": "K",
                        "occu": 1
                    }
                ],
                "abc": [
                    0.80354401,
                    0.19645599,
                    0.25
                ],
                "xyz": [
                    4.9132749475,
                    -3.044943376943638,
                    1.4160562325000001
                ],
                "label": "K",
                "properties": {}
            },
            {
                "species": [
                    {
                        "element": "Na",
                        "occu": 1
                    }
                ],
                "abc": [
                    0.5939353,
                    0.4060647,
                    0.75
                ],
                "xyz": [
                    4.161128762500001,
                    -0.9422939019492222,
                    4.242213457500001
                ],
                "label": "Na",
                "properties": {}
            },
            {
                "species": [
                    {
                        "element": "Na",
                        "occu": 1
                    }
                ],
                "abc": [
                    0.4060647,
                    0.5939353,
                    0.25
                ],
                "xyz": [
                    4.9132749475,
                    0.9422939019492222,
                    1.4160562325000001
                ],
                "label": "Na",
                "properties": {}
            },
            {
                "species": [
                    {
                        "element": "V",
                        "occu": 1
                    }
                ],
                "abc": [
                    0.29975672,
                    0.12897033,
                    0.28265129
                ],
                "xyz": [
                    1.8424964026948247,
                    -0.8566054179468293,
                    1.5989105570167617
                ],
                "label": "V",
                "properties": {}
            },
            {
                "species": [
                    {
                        "element": "V",
                        "occu": 1
                    }
                ],
                "abc": [
                    0.87102967,
                    0.70024328,
                    0.21734871
                ],
                "xyz": [
                    7.984053492305176,
                    -0.8566054179468292,
                    1.2332019079832386
                ],
                "label": "V",
                "properties": {}
            },
            {
                "species": [
                    {
                        "element": "V",
                        "occu": 1
                    }
                ],
                "abc": [
                    0.70024328,
                    0.87102967,
                    0.71734871
                ],
                "xyz": [
                    7.231907307305176,
                    0.8566054179468292,
                    4.059359132983239
                ],
                "label": "V",
                "properties": {}
            },
            {
                "species": [
                    {
                        "element": "V",
                        "occu": 1
                    }
                ],
                "abc": [
                    0.12897033,
                    0.29975672,
                    0.78265129
                ],
                "xyz": [
                    1.0903502176948248,
                    0.8566054179468293,
                    4.425067782016762
                ],
                "label": "V",
                "properties": {}
            },
            {
                "species": [
                    {
                        "element": "O",
                        "occu": 1
                    }
                ],
                "abc": [
                    0.91817187,
                    0.3938626,
                    0.71799703
                ],
                "xyz": [
                    5.859729498395278,
                    -2.629753819152375,
                    4.062251727804646
                ],
                "label": "O",
                "properties": {}
            },
            {
                "species": [
                    {
                        "element": "O",
                        "occu": 1
                    }
                ],
                "abc": [
                    0.6061374,
                    0.08182813,
                    0.78200297
                ],
                "xyz": [
                    2.4625280266047227,
                    -2.6297538191523753,
                    4.422175187195355
                ],
                "label": "O",
                "properties": {}
            },
            {
                "species": [
                    {
                        "element": "O",
                        "occu": 1
                    }
                ],
                "abc": [
                    0.08182813,
                    0.6061374,
                    0.28200297
                ],
                "xyz": [
                    3.214674211604722,
                    2.6297538191523753,
                    1.5960179621953552
                ],
                "label": "O",
                "properties": {}
            },
            {
                "species": [
                    {
                        "element": "O",
                        "occu": 1
                    }
                ],
                "abc": [
                    0.3938626,
                    0.91817187,
                    0.21799703
                ],
                "xyz": [
                    6.611875683395278,
                    2.629753819152375,
                    1.236094502804645
                ],
                "label": "O",
                "properties": {}
            },
            {
                "species": [
                    {
                        "element": "O",
                        "occu": 1
                    }
                ],
                "abc": [
                    0.86232007,
                    0.83226103,
                    0.98078901
                ],
                "xyz": [
                    7.48783579558319,
                    -0.15076574030448509,
                    5.548773712199177
                ],
                "label": "O",
                "properties": {}
            },
            {
                "species": [
                    {
                        "element": "O",
                        "occu": 1
                    }
                ],
                "abc": [
                    0.16773897,
                    0.13767993,
                    0.51921099
                ],
                "xyz": [
                    0.8344217294168098,
                    -0.15076574030448475,
                    2.935653202800824
                ],
                "label": "O",
                "properties": {}
            },
            {
                "species": [
                    {
                        "element": "O",
                        "occu": 1
                    }
                ],
                "abc": [
                    0.13767993,
                    0.16773897,
                    0.01921099
                ],
                "xyz": [
                    1.5865679144168099,
                    0.15076574030448475,
                    0.10949597780082351
                ],
                "label": "O",
                "properties": {}
            },
            {
                "species": [
                    {
                        "element": "O",
                        "occu": 1
                    }
                ],
                "abc": [
                    0.83226103,
                    0.86232007,
                    0.48078901
                ],
                "xyz": [
                    8.23998198058319,
                    0.15076574030448509,
                    2.722616487199177
                ],
                "label": "O",
                "properties": {}
            },
            {
                "species": [
                    {
                        "element": "O",
                        "occu": 1
                    }
                ],
                "abc": [
                    0.46204494,
                    0.29205003,
                    0.35537096
                ],
                "xyz": [
                    3.454088927895784,
                    -0.8526356282218019,
                    2.0109138205829433
                ],
                "label": "O",
                "properties": {}
            },
            {
                "species": [
                    {
                        "element": "O",
                        "occu": 1
                    }
                ],
                "abc": [
                    0.70794997,
                    0.53795506,
                    0.14462904
                ],
                "xyz": [
                    6.372460967104217,
                    -0.8526356282218019,
                    0.8211986444170566
                ],
                "label": "O",
                "properties": {}
            },
            {
                "species": [
                    {
                        "element": "O",
                        "occu": 1
                    }
                ],
                "abc": [
                    0.29205003,
                    0.46204494,
                    0.85537096
                ],
                "xyz": [
                    2.701942742895784,
                    0.8526356282218019,
                    4.837071045582944
                ],
                "label": "O",
                "properties": {}
            },
            {
                "species": [
                    {
                        "element": "O",
                        "occu": 1
                    }
                ],
                "abc": [
                    0.53795506,
                    0.70794997,
                    0.64462904
                ],
                "xyz": [
                    5.620314782104217,
                    0.8526356282218019,
                    3.647355869417057
                ],
                "label": "O",
                "properties": {}
            }
        ]
    },
    "spacegroup": {
        "source": "spglib",
        "symbol": "C2/c",
        "number": 15,
        "point_group": "2/m",
        "crystal_system": "monoclinic",
        "hall": "-C 2yc"
    },
    "dielectric": {
        "epsilon_ionic": [
            [
                4.38333647,
                -1e-08,
                -0.72489688
            ],
            [
                -1e-08,
                2.65937783,
                3e-08
            ],
            [
                -0.72489688,
                3e-08,
                4.59002226
            ]
        ],
        "epsilon_ionic_avg": 3.877578853333334,
        "epsilon_ionic_eig": [
            5.218905587270629,
            3.7544531427293726,
            2.659377830000001
        ],
        "epsilon_electronic": [
            [
                2.97014829,
                0.0,
                -0.16224963
            ],
            [
                0.0,
                3.16758461,
                0.0
            ],
            [
                -0.16224834,
                0.0,
                3.6782941
            ]
        ],
        "epsilon_electronic_avg": 3.272009,
        "epsilon_electronic_eig": [
            2.93474416719444,
            3.71369822280556,
            3.16758461
        ]
    },
    "phonon": {
        "lowest_freq": -0.2518192239776956,
        "frequency": [
            -0.2518192239776956,
            -0.11176717922900647,
            -0.08711462313911374,
            1.3594225970667073,
            2.186146351307724,
            2.264622606828119,
            2.5814510886293798,
            2.5823594915480377,
            2.847921161234321,
            3.492052387557587,
            3.629929594909958,
            3.67665621383797,
            3.809372889551134,
            4.052634485640665,
            4.246806630551884,
            4.430639343604717,
            4.908454005007653,
            4.927029819682596,
            4.957042936332348,
            5.026283078453906,
            5.251535866589217,
            5.362765508106772,
            5.60738522386035,
            5.844407447771336,
            5.8663022645822736,
            5.982011625353185,
            6.198375140906714,
            6.386510345078192,
            6.629255307044656,
            6.88992060936534,
            6.9334001042889755,
            7.169794212983041,
            7.4693264515380315,
            8.001668834960801,
            9.108082106876596,
            9.144859256335458,
            9.791218378865336,
            9.933109330255016,
            9.94695903729659,
            10.062109652882677,
            10.212940097615775,
            10.59664537724979,
            10.622935150662018,
            10.638090021504524,
            14.230059065829733,
            14.91743174468992,
            16.0520265482462,
            16.544277161904073,
            19.788210599641836,
            19.79419328487824,
            24.536466144306896,
            25.152427021123554,
            26.501555843964262,
            26.571031081189147,
            27.537135573681326,
            27.87328022452982,
            28.103719941381783,
            28.43162626316624,
            28.438642151180836,
            28.507503319575235
        ]
    },
    "born_effective_charge": {
        "avg_abs_trace": 1.9246685000000003,
        "tensors": [
            [
                [
                    1.38269,
                    -2e-05,
                    0.08046
                ],
                [
                    -0.0,
                    1.14219,
                    0.0
                ],
                [
                    0.06095,
                    -0.0,
                    1.11633
                ]
            ],
            [
                [
                    1.38269,
                    2e-05,
                    0.08046
                ],
                [
                    -0.0,
                    1.14231,
                    0.0
                ],
                [
                    0.06095,
                    0.0,
                    1.11633
                ]
            ],
            [
                [
                    1.45303,
                    -2e-05,
                    0.21132
                ],
                [
                    -0.0,
                    1.30809,
                    0.0
                ],
                [
                    0.19186,
                    0.0,
                    1.07777
                ]
            ],
            [
                [
                    1.45303,
                    2e-05,
                    0.21132
                ],
                [
                    -0.0,
                    1.30808,
                    0.0
                ],
                [
                    0.19186,
                    -0.0,
                    1.07777
                ]
            ],
            [
                [
                    2.72384,
                    0.34154,
                    -0.48383
                ],
                [
                    -0.47471,
                    3.2309,
                    -0.12246
                ],
                [
                    -0.43656,
                    -0.1758,
                    4.74051
                ]
            ],
            [
                [
                    2.72379,
                    -0.34149,
                    -0.48457
                ],
                [
                    0.47471,
                    3.2309,
                    0.12246
                ],
                [
                    -0.43657,
                    0.1754,
                    4.74012
                ]
            ],
            [
                [
                    2.72379,
                    0.34149,
                    -0.48457
                ],
                [
                    -0.47435,
                    3.23071,
                    -0.12219
                ],
                [
                    -0.43657,
                    -0.1754,
                    4.74012
                ]
            ],
            [
                [
                    2.72384,
                    -0.34154,
                    -0.48383
                ],
                [
                    0.47435,
                    3.23071,
                    0.12219
                ],
                [
                    -0.43656,
                    0.1758,
                    4.74051
                ]
            ],
            [
                [
                    -0.85798,
                    0.65378,
                    -0.181
                ],
                [
                    0.47763,
                    -2.16287,
                    0.28964
                ],
                [
                    -0.14642,
                    0.26853,
                    -0.98163
                ]
            ],
            [
                [
                    -0.85826,
                    -0.65429,
                    -0.18072
                ],
                [
                    -0.47763,
                    -2.16287,
                    -0.28964
                ],
                [
                    -0.14645,
                    -0.26896,
                    -0.9816
                ]
            ],
            [
                [
                    -0.85826,
                    0.65429,
                    -0.18072
                ],
                [
                    0.47766,
                    -2.16211,
                    0.28927
                ],
                [
                    -0.14645,
                    0.26896,
                    -0.9816
                ]
            ],
            [
                [
                    -0.85798,
                    -0.65378,
                    -0.181
                ],
                [
                    -0.47766,
                    -2.16211,
                    -0.28927
                ],
                [
                    -0.14642,
                    -0.26853,
                    -0.98163
                ]
            ],
            [
                [
                    -1.0641,
                    -0.4739,
                    0.87182
                ],
                [
                    -0.38084,
                    -1.49304,
                    1.35855
                ],
                [
                    0.8535,
                    1.93537,
                    -3.97199
                ]
            ],
            [
                [
                    -1.06407,
                    0.4734,
                    0.87168
                ],
                [
                    0.38084,
                    -1.49304,
                    -1.35855
                ],
                [
                    0.85364,
                    -1.93535,
                    -3.97209
                ]
            ],
            [
                [
                    -1.06407,
                    -0.4734,
                    0.87168
                ],
                [
                    -0.38096,
                    -1.49315,
                    1.35837
                ],
                [
                    0.85364,
                    1.93535,
                    -3.97209
                ]
            ],
            [
                [
                    -1.0641,
                    0.4739,
                    0.87182
                ],
                [
                    0.38096,
                    -1.49315,
                    -1.35837
                ],
                [
                    0.8535,
                    -1.93537,
                    -3.97199
                ]
            ],
            [
                [
                    -2.21915,
                    -0.00065,
                    -0.35227
                ],
                [
                    0.27184,
                    -0.80042,
                    0.1799
                ],
                [
                    -0.39682,
                    0.01808,
                    -0.88359
                ]
            ],
            [
                [
                    -2.21978,
                    0.00062,
                    -0.35288
                ],
                [
                    -0.27184,
                    -0.80042,
                    -0.1799
                ],
                [
                    -0.39715,
                    -0.01809,
                    -0.88383
                ]
            ],
            [
                [
                    -2.21915,
                    0.00065,
                    -0.35227
                ],
                [
                    -0.27114,
                    -0.80037,
                    -0.17965
                ],
                [
                    -0.39682,
                    -0.01808,
                    -0.88359
                ]
            ],
            [
                [
                    -2.21978,
                    -0.00062,
                    -0.35288
                ],
                [
                    0.27114,
                    -0.80037,
                    0.17965
                ],
                [
                    -0.39715,
                    0.01809,
                    -0.88383
                ]
            ]
        ]
    },
    "band_gap": 3.2953,
    "is_direct": true,
    "formula": "KNaV2O6"
}