{
    "mp_id": "mp-18815",
    "nelements": 3,
    "nsites": 20,
    "elements": [
        "K",
        "O",
        "V"
    ],
    "structure": {
        "@module": "pymatgen.core.structure",
        "@class": "Structure",
        "charge": null,
        "lattice": {
            "matrix": [
                [
                    5.22352098,
                    0.0,
                    0.0
                ],
                [
                    0.0,
                    10.74212426,
                    0.0
                ],
                [
                    0.0,
                    0.0,
                    5.71057186
                ]
            ],
            "a": 5.22352098,
            "b": 10.74212426,
            "c": 5.71057186,
            "alpha": 90.0,
            "beta": 90.0,
            "gamma": 90.0,
            "volume": 320.4299603764227
        },
        "sites": [
            {
                "species": [
                    {
                        "element": "K",
                        "occu": 1
                    }
                ],
                "abc": [
                    0.06128243,
                    0.89500561,
                    0.75
                ],
                "xyz": [
                    0.3201100588103814,
                    9.614261476017099,
                    4.2829288949999995
                ],
                "label": "K",
                "properties": {}
            },
            {
                "species": [
                    {
                        "element": "K",
                        "occu": 1
                    }
                ],
                "abc": [
                    0.06128243,
                    0.60499439,
                    0.25
                ],
                "xyz": [
                    0.3201100588103814,
                    6.4989249139829015,
                    1.427642965
                ],
                "label": "K",
                "properties": {}
            },
            {
                "species": [
                    {
                        "element": "K",
                        "occu": 1
                    }
                ],
                "abc": [
                    0.93871757,
                    0.10499439,
                    0.25
                ],
                "xyz": [
                    4.903410921189619,
                    1.1278627839829016,
                    1.427642965
                ],
                "label": "K",
                "properties": {}
            },
            {
                "species": [
                    {
                        "element": "K",
                        "occu": 1
                    }
                ],
                "abc": [
                    0.93871757,
                    0.39500561,
                    0.75
                ],
                "xyz": [
                    4.903410921189619,
                    4.243199346017099,
                    4.2829288949999995
                ],
                "label": "K",
                "properties": {}
            },
            {
                "species": [
                    {
                        "element": "V",
                        "occu": 1
                    }
                ],
                "abc": [
                    0.47481475,
                    0.16080369,
                    0.75
                ],
                "xyz": [
                    2.480204808238455,
                    1.7273732194465194,
                    4.2829288949999995
                ],
                "label": "V",
                "properties": {}
            },
            {
                "species": [
                    {
                        "element": "V",
                        "occu": 1
                    }
                ],
                "abc": [
                    0.47481475,
                    0.33919631,
                    0.25
                ],
                "xyz": [
                    2.480204808238455,
                    3.6436889105534807,
                    1.427642965
                ],
                "label": "V",
                "properties": {}
            },
            {
                "species": [
                    {
                        "element": "V",
                        "occu": 1
                    }
                ],
                "abc": [
                    0.52518525,
                    0.83919631,
                    0.25
                ],
                "xyz": [
                    2.743316171761545,
                    9.014751040553481,
                    1.427642965
                ],
                "label": "V",
                "properties": {}
            },
            {
                "species": [
                    {
                        "element": "V",
                        "occu": 1
                    }
                ],
                "abc": [
                    0.52518525,
                    0.66080369,
                    0.75
                ],
                "xyz": [
                    2.743316171761545,
                    7.09843534944652,
                    4.2829288949999995
                ],
                "label": "V",
                "properties": {}
            },
            {
                "species": [
                    {
                        "element": "O",
                        "occu": 1
                    }
                ],
                "abc": [
                    0.39327423,
                    0.52099321,
                    0.75
                ],
                "xyz": [
                    2.0542761912983454,
                    5.596573800436275,
                    4.2829288949999995
                ],
                "label": "O",
                "properties": {}
            },
            {
                "species": [
                    {
                        "element": "O",
                        "occu": 1
                    }
                ],
                "abc": [
                    0.39327423,
                    0.97900679,
                    0.25
                ],
                "xyz": [
                    2.0542761912983454,
                    10.516612589563726,
                    1.427642965
                ],
                "label": "O",
                "properties": {}
            },
            {
                "species": [
                    {
                        "element": "O",
                        "occu": 1
                    }
                ],
                "abc": [
                    0.60672577,
                    0.47900679,
                    0.25
                ],
                "xyz": [
                    3.169244788701655,
                    5.145550459563726,
                    1.427642965
                ],
                "label": "O",
                "properties": {}
            },
            {
                "species": [
                    {
                        "element": "O",
                        "occu": 1
                    }
                ],
                "abc": [
                    0.60672577,
                    0.02099321,
                    0.75
                ],
                "xyz": [
                    3.169244788701655,
                    0.22551167043627462,
                    4.2829288949999995
                ],
                "label": "O",
                "properties": {}
            },
            {
                "species": [
                    {
                        "element": "O",
                        "occu": 1
                    }
                ],
                "abc": [
                    0.8433478,
                    0.64887407,
                    0.75
                ],
                "xyz": [
                    4.405244926736844,
                    6.970285889031938,
                    4.2829288949999995
                ],
                "label": "O",
                "properties": {}
            },
            {
                "species": [
                    {
                        "element": "O",
                        "occu": 1
                    }
                ],
                "abc": [
                    0.8433478,
                    0.85112593,
                    0.25
                ],
                "xyz": [
                    4.405244926736844,
                    9.142900500968063,
                    1.427642965
                ],
                "label": "O",
                "properties": {}
            },
            {
                "species": [
                    {
                        "element": "O",
                        "occu": 1
                    }
                ],
                "abc": [
                    0.1566522,
                    0.35112593,
                    0.25
                ],
                "xyz": [
                    0.818276053263156,
                    3.771838370968062,
                    1.427642965
                ],
                "label": "O",
                "properties": {}
            },
            {
                "species": [
                    {
                        "element": "O",
                        "occu": 1
                    }
                ],
                "abc": [
                    0.1566522,
                    0.14887407,
                    0.75
                ],
                "xyz": [
                    0.818276053263156,
                    1.5992237590319383,
                    4.2829288949999995
                ],
                "label": "O",
                "properties": {}
            },
            {
                "species": [
                    {
                        "element": "O",
                        "occu": 1
                    }
                ],
                "abc": [
                    0.58596366,
                    0.25,
                    0.0
                ],
                "xyz": [
                    3.0607934715275866,
                    2.685531065,
                    0.0
                ],
                "label": "O",
                "properties": {}
            },
            {
                "species": [
                    {
                        "element": "O",
                        "occu": 1
                    }
                ],
                "abc": [
                    0.41403634,
                    0.75,
                    0.5
                ],
                "xyz": [
                    2.1627275084724134,
                    8.056593195000001,
                    2.85528593
                ],
                "label": "O",
                "properties": {}
            },
            {
                "species": [
                    {
                        "element": "O",
                        "occu": 1
                    }
                ],
                "abc": [
                    0.41403634,
                    0.75,
                    0.0
                ],
                "xyz": [
                    2.1627275084724134,
                    8.056593195000001,
                    0.0
                ],
                "label": "O",
                "properties": {}
            },
            {
                "species": [
                    {
                        "element": "O",
                        "occu": 1
                    }
                ],
                "abc": [
                    0.58596366,
                    0.25,
                    0.5
                ],
                "xyz": [
                    3.0607934715275866,
                    2.685531065,
                    2.85528593
                ],
                "label": "O",
                "properties": {}
            }
        ]
    },
    "spacegroup": {
        "source": "spglib",
        "symbol": "Pbcm",
        "number": 57,
        "point_group": "mmm",
        "crystal_system": "orthorhombic",
        "hall": "-P 2c 2b"
    },
    "dielectric": {
        "epsilon_ionic": [
            [
                3.81847468,
                1.9e-07,
                2.2e-07
            ],
            [
                1.9e-07,
                3.02633542,
                -3e-08
            ],
            [
                2.2e-07,
                -3e-08,
                20.68088628
            ]
        ],
        "epsilon_ionic_avg": 9.175232126666666,
        "epsilon_ionic_eig": [
            3.8184746800000404,
            20.680886280000003,
            3.0263354199999526
        ],
        "epsilon_electronic": [
            [
                3.03553378,
                0.0,
                -0.0
            ],
            [
                0.0,
                3.37018435,
                0.0
            ],
            [
                0.0,
                0.0,
                3.56928122
            ]
        ],
        "epsilon_electronic_avg": 3.324999783333334,
        "epsilon_electronic_eig": [
            3.03553378,
            3.37018435,
            3.56928122
        ]
    },
    "phonon": {
        "lowest_freq": -0.08642201080001063,
        "frequency": [
            -0.08642201080001063,
            -0.07232060247255935,
            -0.047043735027936025,
            1.2655736870740615,
            1.8002583815471869,
            1.9068065084237147,
            2.030410611167233,
            2.160306553251633,
            2.5092820143348606,
            2.527066285649904,
            2.8622627795021476,
            2.8887331259539453,
            3.1057651174258942,
            3.1718373372005964,
            3.3726319309847455,
            3.388251180459171,
            3.476191525053616,
            3.663524018215161,
            3.7400198422337176,
            3.856868797846984,
            4.53883878404693,
            4.569463647436697,
            4.762694147157187,
            4.824037133347702,
            4.8873615446915135,
            5.333515217743173,
            5.57585857833366,
            6.037518589571542,
            6.059791785821782,
            6.791645363646193,
            6.798339632708677,
            6.827412065715212,
            6.909479067114249,
            6.929219201106862,
            8.627001137916945,
            9.068656142088727,
            9.151242103899449,
            9.798107867522367,
            9.827258536562448,
            10.209259758702949,
            10.217348640440973,
            10.27232504137476,
            10.784932160530785,
            10.840026125462735,
            14.307364710319948,
            14.336011394838621,
            15.583972941170407,
            15.757097538596653,
            20.28073857550746,
            20.2917233243442,
            25.35686852593855,
            26.260774817800865,
            26.28287056399192,
            26.559191823609215,
            27.07690948212826,
            27.206304620738727,
            27.44887463357288,
            28.017260027104726,
            28.60249746831355,
            28.943901520658713
        ]
    },
    "born_effective_charge": {
        "avg_abs_trace": 1.9896839999999993,
        "tensors": [
            [
                [
                    1.44657,
                    0.19594,
                    0.0
                ],
                [
                    -0.08898,
                    1.2757,
                    -0.0
                ],
                [
                    -3e-05,
                    -0.0,
                    1.09199
                ]
            ],
            [
                [
                    1.44657,
                    -0.19594,
                    0.0
                ],
                [
                    0.08896,
                    1.27571,
                    -0.0
                ],
                [
                    -3e-05,
                    0.0,
                    1.09199
                ]
            ],
            [
                [
                    1.44651,
                    0.19601,
                    0.0
                ],
                [
                    -0.08896,
                    1.27571,
                    0.0
                ],
                [
                    3e-05,
                    0.0,
                    1.09199
                ]
            ],
            [
                [
                    1.44651,
                    -0.19601,
                    0.0
                ],
                [
                    0.08898,
                    1.2757,
                    0.0
                ],
                [
                    3e-05,
                    -0.0,
                    1.09199
                ]
            ],
            [
                [
                    2.84071,
                    -0.23406,
                    -0.0
                ],
                [
                    0.30218,
                    3.67378,
                    -0.0
                ],
                [
                    -0.00014,
                    -0.0001,
                    4.59445
                ]
            ],
            [
                [
                    2.84071,
                    0.23406,
                    -0.0
                ],
                [
                    -0.30205,
                    3.67327,
                    0.0
                ],
                [
                    -0.00014,
                    0.0001,
                    4.59445
                ]
            ],
            [
                [
                    2.84014,
                    -0.2343,
                    0.0
                ],
                [
                    0.30205,
                    3.67327,
                    0.0
                ],
                [
                    0.00014,
                    0.0001,
                    4.59445
                ]
            ],
            [
                [
                    2.84014,
                    0.2343,
                    0.0
                ],
                [
                    -0.30218,
                    3.67378,
                    0.0
                ],
                [
                    0.00014,
                    -0.0001,
                    4.59445
                ]
            ],
            [
                [
                    -1.0786,
                    -0.7748,
                    0.0
                ],
                [
                    -0.80655,
                    -2.37529,
                    0.0
                ],
                [
                    -0.00011,
                    -7e-05,
                    -0.83682
                ]
            ],
            [
                [
                    -1.0786,
                    0.7748,
                    0.0
                ],
                [
                    0.80765,
                    -2.37562,
                    0.0
                ],
                [
                    -0.00011,
                    7e-05,
                    -0.83682
                ]
            ],
            [
                [
                    -1.07843,
                    -0.77542,
                    0.0
                ],
                [
                    -0.80765,
                    -2.37562,
                    0.0
                ],
                [
                    0.00011,
                    7e-05,
                    -0.83682
                ]
            ],
            [
                [
                    -1.07843,
                    0.77542,
                    0.0
                ],
                [
                    0.80655,
                    -2.37529,
                    0.0
                ],
                [
                    0.00011,
                    -7e-05,
                    -0.83682
                ]
            ],
            [
                [
                    -2.35259,
                    0.15381,
                    -0.0
                ],
                [
                    0.15256,
                    -0.75296,
                    -0.0
                ],
                [
                    -2e-05,
                    -3e-05,
                    -0.82617
                ]
            ],
            [
                [
                    -2.35259,
                    -0.15381,
                    -0.0
                ],
                [
                    -0.15217,
                    -0.75246,
                    0.0
                ],
                [
                    -2e-05,
                    3e-05,
                    -0.82617
                ]
            ],
            [
                [
                    -2.35441,
                    0.15482,
                    0.0
                ],
                [
                    0.15217,
                    -0.75246,
                    0.0
                ],
                [
                    2e-05,
                    3e-05,
                    -0.82617
                ]
            ],
            [
                [
                    -2.35441,
                    -0.15482,
                    0.0
                ],
                [
                    -0.15256,
                    -0.75296,
                    0.0
                ],
                [
                    2e-05,
                    -3e-05,
                    -0.82617
                ]
            ],
            [
                [
                    -0.85508,
                    -0.0,
                    0.0
                ],
                [
                    0.00023,
                    -1.82107,
                    -1.5211
                ],
                [
                    -9e-05,
                    -2.14286,
                    -4.02344
                ]
            ],
            [
                [
                    -0.85481,
                    0.0,
                    -0.0
                ],
                [
                    -0.00023,
                    -1.82107,
                    1.5211
                ],
                [
                    9e-05,
                    2.14286,
                    -4.02344
                ]
            ],
            [
                [
                    -0.85481,
                    -0.0,
                    -0.0
                ],
                [
                    -0.00023,
                    -1.82107,
                    -1.5211
                ],
                [
                    9e-05,
                    -2.14286,
                    -4.02344
                ]
            ],
            [
                [
                    -0.85508,
                    -0.0,
                    0.0
                ],
                [
                    0.00023,
                    -1.82107,
                    1.5211
                ],
                [
                    -9e-05,
                    2.14286,
                    -4.02344
                ]
            ]
        ]
    },
    "band_gap": 3.0892,
    "is_direct": false,
    "formula": "KVO3"
}