{
    "mp_id": "mp-1190367",
    "nelements": 4,
    "nsites": 22,
    "elements": [
        "As",
        "Cd",
        "O",
        "Sr"
    ],
    "structure": {
        "@module": "pymatgen.core.structure",
        "@class": "Structure",
        "charge": null,
        "lattice": {
            "matrix": [
                [
                    5.8187178,
                    0.00069499,
                    -3.737e-05
                ],
                [
                    -1.12640911,
                    7.07780885,
                    0.00093254
                ],
                [
                    -0.02376775,
                    -1.42077362,
                    7.31366622
                ]
            ],
            "a": 5.818717841624944,
            "b": 7.16688052571411,
            "c": 7.450427918099541,
            "alpha": 100.81845923880842,
            "beta": 90.18444690099284,
            "gamma": 99.03575058349998,
            "volume": 301.2177333073784
        },
        "sites": [
            {
                "species": [
                    {
                        "element": "Sr",
                        "occu": 1
                    }
                ],
                "abc": [
                    0.67942592,
                    0.27451404,
                    0.93589804
                ],
                "xyz": [
                    3.621928388366262,
                    0.6137308497396903,
                    6.845076485688439
                ],
                "label": "Sr",
                "properties": {}
            },
            {
                "species": [
                    {
                        "element": "Sr",
                        "occu": 1
                    }
                ],
                "abc": [
                    0.32057408,
                    0.72548596,
                    0.06410196
                ],
                "xyz": [
                    1.0466125516337383,
                    5.04399937026031,
                    0.46948490431156
                ],
                "label": "Sr",
                "properties": {}
            },
            {
                "species": [
                    {
                        "element": "Cd",
                        "occu": 1
                    }
                ],
                "abc": [
                    0.31562601,
                    0.83212782,
                    0.59936812
                ],
                "xyz": [
                    0.884976693763408,
                    5.038294592082902,
                    4.384342570122175
                ],
                "label": "Cd",
                "properties": {}
            },
            {
                "species": [
                    {
                        "element": "Cd",
                        "occu": 1
                    }
                ],
                "abc": [
                    0.68437399,
                    0.16787218,
                    0.40063188
                ],
                "xyz": [
                    3.783564246236592,
                    0.6194356279170975,
                    2.9302188198778247
                ],
                "label": "Cd",
                "properties": {}
            },
            {
                "species": [
                    {
                        "element": "As",
                        "occu": 1
                    }
                ],
                "abc": [
                    0.81908367,
                    0.78153745,
                    0.82525773
                ],
                "xyz": [
                    3.8660713074199493,
                    4.359637522691163,
                    6.036357788471756
                ],
                "label": "As",
                "properties": {}
            },
            {
                "species": [
                    {
                        "element": "As",
                        "occu": 1
                    }
                ],
                "abc": [
                    0.18091633,
                    0.21846255,
                    0.17474227
                ],
                "xyz": [
                    0.8024696325800509,
                    1.298092697308837,
                    1.2782036015282445
                ],
                "label": "As",
                "properties": {}
            },
            {
                "species": [
                    {
                        "element": "As",
                        "occu": 1
                    }
                ],
                "abc": [
                    0.79451769,
                    0.66917824,
                    0.38443032
                ],
                "xyz": [
                    3.860168715729936,
                    4.190679393764638,
                    2.812189389677645
                ],
                "label": "As",
                "properties": {}
            },
            {
                "species": [
                    {
                        "element": "As",
                        "occu": 1
                    }
                ],
                "abc": [
                    0.20548231,
                    0.33082176,
                    0.61556968
                ],
                "xyz": [
                    0.8083722242700643,
                    1.4670508262353612,
                    4.502372000322356
                ],
                "label": "As",
                "properties": {}
            },
            {
                "species": [
                    {
                        "element": "O",
                        "occu": 1
                    }
                ],
                "abc": [
                    0.9304688,
                    0.2229535,
                    0.64556645
                ],
                "xyz": [
                    5.147654853406268,
                    0.661465139832738,
                    4.721630679568153
                ],
                "label": "O",
                "properties": {}
            },
            {
                "species": [
                    {
                        "element": "O",
                        "occu": 1
                    }
                ],
                "abc": [
                    0.0695312,
                    0.7770465,
                    0.35443355
                ],
                "xyz": [
                    -0.4791139134062674,
                    4.9962650801672615,
                    2.592930710431847
                ],
                "label": "O",
                "properties": {}
            },
            {
                "species": [
                    {
                        "element": "O",
                        "occu": 1
                    }
                ],
                "abc": [
                    0.76005192,
                    0.6360381,
                    0.97883082
                ],
                "xyz": [
                    3.6828239194590298,
                    3.1115873141020978,
                    7.159406631158424
                ],
                "label": "O",
                "properties": {}
            },
            {
                "species": [
                    {
                        "element": "O",
                        "occu": 1
                    }
                ],
                "abc": [
                    0.23994808,
                    0.3639619,
                    0.02116918
                ],
                "xyz": [
                    0.98571702054097,
                    2.546142905897903,
                    0.15515475884157598
                ],
                "label": "O",
                "properties": {}
            },
            {
                "species": [
                    {
                        "element": "O",
                        "occu": 1
                    }
                ],
                "abc": [
                    0.79244179,
                    0.61783522,
                    0.61004108
                ],
                "xyz": [
                    3.9005606247708378,
                    3.5067400534970194,
                    4.462183382114684
                ],
                "label": "O",
                "properties": {}
            },
            {
                "species": [
                    {
                        "element": "O",
                        "occu": 1
                    }
                ],
                "abc": [
                    0.20755821,
                    0.38216478,
                    0.38995892
                ],
                "xyz": [
                    0.7679803152291623,
                    2.1509901665029805,
                    2.852378007885316
                ],
                "label": "O",
                "properties": {}
            },
            {
                "species": [
                    {
                        "element": "O",
                        "occu": 1
                    }
                ],
                "abc": [
                    0.60527603,
                    0.91808557,
                    0.82277908
                ],
                "xyz": [
                    2.4682348523881212,
                    5.329472021239515,
                    6.018365096270885
                ],
                "label": "O",
                "properties": {}
            },
            {
                "species": [
                    {
                        "element": "O",
                        "occu": 1
                    }
                ],
                "abc": [
                    0.39472397,
                    0.08191443,
                    0.17722092
                ],
                "xyz": [
                    2.200306087611878,
                    0.3282581987604854,
                    1.2961962937291158
                ],
                "label": "O",
                "properties": {}
            },
            {
                "species": [
                    {
                        "element": "O",
                        "occu": 1
                    }
                ],
                "abc": [
                    0.5903833,
                    0.81736205,
                    0.37465764
                ],
                "xyz": [
                    2.5056849881213545,
                    5.253238970190353,
                    2.7408610859151072
                ],
                "label": "O",
                "properties": {}
            },
            {
                "species": [
                    {
                        "element": "O",
                        "occu": 1
                    }
                ],
                "abc": [
                    0.4096167,
                    0.18263795,
                    0.62534236
                ],
                "xyz": [
                    2.1628559518786457,
                    0.40449124980964724,
                    4.573700304084893
                ],
                "label": "O",
                "properties": {}
            },
            {
                "species": [
                    {
                        "element": "O",
                        "occu": 1
                    }
                ],
                "abc": [
                    0.28849284,
                    0.55693732,
                    0.73173639
                ],
                "xyz": [
                    1.0339274247501442,
                    2.9024646323241217,
                    5.352184302838708
                ],
                "label": "O",
                "properties": {}
            },
            {
                "species": [
                    {
                        "element": "O",
                        "occu": 1
                    }
                ],
                "abc": [
                    0.71150716,
                    0.44306268,
                    0.26826361
                ],
                "xyz": [
                    3.6346135152498564,
                    2.7552655876758783,
                    1.9623770871612922
                ],
                "label": "O",
                "properties": {}
            },
            {
                "species": [
                    {
                        "element": "O",
                        "occu": 1
                    }
                ],
                "abc": [
                    0.09745709,
                    0.89832587,
                    0.84538035
                ],
                "xyz": [
                    -0.46489992821118614,
                    5.157152424426561,
                    6.183663791682133
                ],
                "label": "O",
                "properties": {}
            },
            {
                "species": [
                    {
                        "element": "O",
                        "occu": 1
                    }
                ],
                "abc": [
                    0.90254291,
                    0.10167413,
                    0.15461965
                ],
                "xyz": [
                    5.133440868211187,
                    0.5005777955734385,
                    1.1308975983178666
                ],
                "label": "O",
                "properties": {}
            }
        ]
    },
    "spacegroup": {
        "source": "spglib",
        "symbol": "P-1",
        "number": 2,
        "point_group": "-1",
        "crystal_system": "triclinic",
        "hall": "-P 1"
    },
    "dielectric": {
        "epsilon_ionic": [
            [
                9.88783304,
                -0.01889839,
                -0.09079579
            ],
            [
                -0.01889839,
                6.06285614,
                -0.06363555
            ],
            [
                -0.09079579,
                -0.06363555,
                5.39296004
            ]
        ],
        "epsilon_ionic_avg": 7.11454974,
        "epsilon_ionic_eig": [
            9.889747407504988,
            5.38508202743685,
            6.068819785058162
        ],
        "epsilon_electronic": [
            [
                3.66713972,
                -0.01862772,
                0.00403021
            ],
            [
                -0.01862616,
                3.52416926,
                0.01362408
            ],
            [
                0.00403178,
                0.01362738,
                3.64734001
            ]
        ],
        "epsilon_electronic_avg": 3.6128829966666665,
        "epsilon_electronic_eig": [
            3.520233778803397,
            3.669770114039781,
            3.648645097156821
        ]
    },
    "phonon": {
        "lowest_freq": -0.07411295309626237,
        "frequency": [
            -0.07411295309626237,
            -0.044143354043561275,
            -0.027609776954793667,
            1.7831738173296074,
            2.057503627616991,
            2.1317761666022483,
            2.4801746044439414,
            2.487191775579944,
            2.722588875503722,
            3.029261112388633,
            3.283420821544576,
            3.464919246242375,
            3.4712053013653144,
            3.507229603885427,
            3.8138435056689883,
            4.052129233571156,
            4.324879592076838,
            4.45214949042411,
            4.570715534491129,
            4.605886199800416,
            4.80018292320039,
            4.8571463340980365,
            4.996210956422791,
            5.252265195150795,
            5.580292597362356,
            5.801151055909713,
            5.877958543461871,
            6.4515194299157645,
            6.864470063385701,
            6.982726402607675,
            8.03176515031826,
            8.051745620762759,
            8.784746695277274,
            8.933036776809,
            9.186264739617087,
            9.267147640981081,
            9.545180958848,
            9.815559359734156,
            10.36576417930832,
            10.398244430118615,
            10.491657768219094,
            10.575075118618093,
            10.83987800795691,
            10.920202162619445,
            11.118160977664472,
            11.96143354748604,
            12.027186049891501,
            12.116548280912951,
            13.00462911200587,
            13.893072849819916,
            15.328623667547348,
            15.832090617310584,
            21.985761525686236,
            21.995796857438155,
            22.722524213236213,
            22.874730610285027,
            24.203597864665657,
            24.277626549158175,
            24.37182956072035,
            24.451432253483652,
            24.75866150591831,
            24.768267919749338,
            25.332785040284687,
            25.568336346674077,
            25.731603448687917,
            25.921199915719495
        ]
    },
    "born_effective_charge": {
        "avg_abs_trace": 2.211849242424243,
        "tensors": [
            [
                [
                    2.48975,
                    -0.14068,
                    -0.04841
                ],
                [
                    0.01741,
                    2.69156,
                    0.23143
                ],
                [
                    -0.07076,
                    -0.0093,
                    2.91729
                ]
            ],
            [
                [
                    2.48977,
                    -0.14063,
                    -0.04843
                ],
                [
                    0.01751,
                    2.69162,
                    0.23136
                ],
                [
                    -0.07068,
                    -0.00927,
                    2.91708
                ]
            ],
            [
                [
                    2.76875,
                    0.00786,
                    0.01802
                ],
                [
                    0.06236,
                    2.53269,
                    -0.15808
                ],
                [
                    -0.00386,
                    -0.01041,
                    2.15768
                ]
            ],
            [
                [
                    2.76876,
                    0.00784,
                    0.01805
                ],
                [
                    0.06238,
                    2.53261,
                    -0.15805
                ],
                [
                    -0.00387,
                    -0.01049,
                    2.15768
                ]
            ],
            [
                [
                    3.67376,
                    0.04777,
                    0.0606
                ],
                [
                    -0.05889,
                    3.00487,
                    -0.04045
                ],
                [
                    -0.02678,
                    0.2379,
                    3.74171
                ]
            ],
            [
                [
                    3.6737,
                    0.04777,
                    0.06061
                ],
                [
                    -0.05885,
                    3.00494,
                    -0.04049
                ],
                [
                    -0.02693,
                    0.23785,
                    3.74173
                ]
            ],
            [
                [
                    3.54325,
                    -0.11783,
                    -0.03979
                ],
                [
                    -0.27801,
                    3.2899,
                    0.21032
                ],
                [
                    0.12139,
                    -0.14946,
                    3.68439
                ]
            ],
            [
                [
                    3.54322,
                    -0.11785,
                    -0.03982
                ],
                [
                    -0.27805,
                    3.28984,
                    0.21031
                ],
                [
                    0.12149,
                    -0.14945,
                    3.68447
                ]
            ],
            [
                [
                    -2.25323,
                    -0.43782,
                    0.00498
                ],
                [
                    -0.34427,
                    -1.25248,
                    0.0258
                ],
                [
                    0.05965,
                    0.03564,
                    -1.51502
                ]
            ],
            [
                [
                    -2.25324,
                    -0.43778,
                    0.00497
                ],
                [
                    -0.34436,
                    -1.25242,
                    0.02592
                ],
                [
                    0.0598,
                    0.03581,
                    -1.51517
                ]
            ],
            [
                [
                    -1.45713,
                    -0.05535,
                    0.06972
                ],
                [
                    -0.09724,
                    -1.8794,
                    0.38657
                ],
                [
                    0.13195,
                    0.58778,
                    -1.75026
                ]
            ],
            [
                [
                    -1.45697,
                    -0.05531,
                    0.06972
                ],
                [
                    -0.0971,
                    -1.87902,
                    0.38625
                ],
                [
                    0.13221,
                    0.5885,
                    -1.75035
                ]
            ],
            [
                [
                    -1.12039,
                    0.0415,
                    0.00958
                ],
                [
                    0.04032,
                    -1.12158,
                    -0.067
                ],
                [
                    -0.02332,
                    -0.13463,
                    -3.05359
                ]
            ],
            [
                [
                    -1.12041,
                    0.04159,
                    0.00958
                ],
                [
                    0.0404,
                    -1.12176,
                    -0.06692
                ],
                [
                    -0.02308,
                    -0.13419,
                    -3.05384
                ]
            ],
            [
                [
                    -2.15612,
                    0.37186,
                    -0.16177
                ],
                [
                    0.32998,
                    -1.82382,
                    -0.09073
                ],
                [
                    -0.15237,
                    -0.08341,
                    -1.42945
                ]
            ],
            [
                [
                    -2.15597,
                    0.37176,
                    -0.16178
                ],
                [
                    0.33042,
                    -1.82406,
                    -0.09071
                ],
                [
                    -0.15228,
                    -0.08352,
                    -1.42949
                ]
            ],
            [
                [
                    -2.19131,
                    0.56555,
                    0.09995
                ],
                [
                    0.54433,
                    -1.90962,
                    -0.01616
                ],
                [
                    0.00676,
                    0.05097,
                    -1.41564
                ]
            ],
            [
                [
                    -2.19125,
                    0.56562,
                    0.09993
                ],
                [
                    0.54441,
                    -1.90953,
                    -0.0163
                ],
                [
                    0.00639,
                    0.05129,
                    -1.41561
                ]
            ],
            [
                [
                    -1.14913,
                    -0.03322,
                    -0.06693
                ],
                [
                    -0.05867,
                    -2.21197,
                    -0.3908
                ],
                [
                    -0.09835,
                    -0.46546,
                    -1.77716
                ]
            ],
            [
                [
                    -1.14918,
                    -0.03325,
                    -0.06684
                ],
                [
                    -0.05865,
                    -2.2115,
                    -0.39046
                ],
                [
                    -0.09832,
                    -0.46492,
                    -1.77713
                ]
            ],
            [
                [
                    -2.14836,
                    -0.24972,
                    0.05397
                ],
                [
                    -0.15767,
                    -1.32039,
                    -0.09094
                ],
                [
                    0.0554,
                    -0.06053,
                    -1.55952
                ]
            ],
            [
                [
                    -2.14827,
                    -0.24967,
                    0.05407
                ],
                [
                    -0.15774,
                    -1.32049,
                    -0.09084
                ],
                [
                    0.05557,
                    -0.06067,
                    -1.5598
                ]
            ]
        ]
    },
    "band_gap": 2.4972000000000003,
    "is_direct": false,
    "formula": "SrCdAs2O7"
}