{
    "mp_id": "mp-16805",
    "nelements": 4,
    "nsites": 30,
    "elements": [
        "Cs",
        "Ge",
        "O",
        "Ti"
    ],
    "structure": {
        "@module": "pymatgen.core.structure",
        "@class": "Structure",
        "charge": null,
        "lattice": {
            "matrix": [
                [
                    7.22886446,
                    1.08e-06,
                    0.0
                ],
                [
                    -3.61443366,
                    6.2603795,
                    0.0
                ],
                [
                    0.0,
                    0.0,
                    10.53244081
                ]
            ],
            "a": 7.22886446000008,
            "b": 7.228864514331503,
            "c": 10.53244081,
            "alpha": 90.0,
            "beta": 90.0,
            "gamma": 120.00000427886432,
            "volume": 476.65023025197405
        },
        "sites": [
            {
                "species": [
                    {
                        "element": "Cs",
                        "occu": 1
                    }
                ],
                "abc": [
                    0.333333,
                    0.666667,
                    0.44435094
                ],
                "xyz": [
                    -4.567766040075583e-06,
                    4.17358878012614,
                    4.680099974417862
                ],
                "label": "Cs",
                "properties": {}
            },
            {
                "species": [
                    {
                        "element": "Cs",
                        "occu": 1
                    }
                ],
                "abc": [
                    0.666667,
                    0.333333,
                    0.94435094
                ],
                "xyz": [
                    3.6144353677660392,
                    2.0867917998738603,
                    9.946320379417863
                ],
                "label": "Cs",
                "properties": {}
            },
            {
                "species": [
                    {
                        "element": "Cs",
                        "occu": 1
                    }
                ],
                "abc": [
                    0.666667,
                    0.333333,
                    0.55564906
                ],
                "xyz": [
                    3.6144353677660392,
                    2.0867917998738603,
                    5.852340835582139
                ],
                "label": "Cs",
                "properties": {}
            },
            {
                "species": [
                    {
                        "element": "Cs",
                        "occu": 1
                    }
                ],
                "abc": [
                    0.333333,
                    0.666667,
                    0.05564906
                ],
                "xyz": [
                    -4.567766040075583e-06,
                    4.17358878012614,
                    0.5861204305821386
                ],
                "label": "Cs",
                "properties": {}
            },
            {
                "species": [
                    {
                        "element": "Ti",
                        "occu": 1
                    }
                ],
                "abc": [
                    0.0,
                    0.0,
                    0.5
                ],
                "xyz": [
                    0.0,
                    0.0,
                    5.266220405
                ],
                "label": "Ti",
                "properties": {}
            },
            {
                "species": [
                    {
                        "element": "Ti",
                        "occu": 1
                    }
                ],
                "abc": [
                    0.0,
                    0.0,
                    0.0
                ],
                "xyz": [
                    0.0,
                    0.0,
                    0.0
                ],
                "label": "Ti",
                "properties": {}
            },
            {
                "species": [
                    {
                        "element": "Ge",
                        "occu": 1
                    }
                ],
                "abc": [
                    0.23197281,
                    0.86436539,
                    0.75
                ],
                "xyz": [
                    -1.4472913582596947,
                    5.411255618596139,
                    7.8993306075000005
                ],
                "label": "Ge",
                "properties": {}
            },
            {
                "species": [
                    {
                        "element": "Ge",
                        "occu": 1
                    }
                ],
                "abc": [
                    0.63239158,
                    0.76802719,
                    0.75
                ],
                "xyz": [
                    1.7954896901340311,
                    4.808142358701511,
                    7.8993306075000005
                ],
                "label": "Ge",
                "properties": {}
            },
            {
                "species": [
                    {
                        "element": "Ge",
                        "occu": 1
                    }
                ],
                "abc": [
                    0.13563461,
                    0.36760842,
                    0.75
                ],
                "xyz": [
                    -0.3482120351724566,
                    2.301368363080769,
                    7.8993306075000005
                ],
                "label": "Ge",
                "properties": {}
            },
            {
                "species": [
                    {
                        "element": "Ge",
                        "occu": 1
                    }
                ],
                "abc": [
                    0.36760842,
                    0.23197281,
                    0.25
                ],
                "xyz": [
                    1.8189411098659682,
                    1.4522382212984886,
                    2.6331102025
                ],
                "label": "Ge",
                "properties": {}
            },
            {
                "species": [
                    {
                        "element": "Ge",
                        "occu": 1
                    }
                ],
                "abc": [
                    0.86436539,
                    0.63239158,
                    0.25
                ],
                "xyz": [
                    3.9626428351724563,
                    3.959012216919231,
                    2.6331102025
                ],
                "label": "Ge",
                "properties": {}
            },
            {
                "species": [
                    {
                        "element": "Ge",
                        "occu": 1
                    }
                ],
                "abc": [
                    0.76802719,
                    0.13563461,
                    0.25
                ],
                "xyz": [
                    5.061722158259695,
                    0.8491249614038601,
                    2.6331102025
                ],
                "label": "Ge",
                "properties": {}
            },
            {
                "species": [
                    {
                        "element": "O",
                        "occu": 1
                    }
                ],
                "abc": [
                    0.23674097,
                    0.21391128,
                    0.39369958
                ],
                "xyz": [
                    0.9382002535732412,
                    1.3391660478110077,
                    4.14661752327186
                ],
                "label": "O",
                "properties": {}
            },
            {
                "species": [
                    {
                        "element": "O",
                        "occu": 1
                    }
                ],
                "abc": [
                    0.02282969,
                    0.23674097,
                    0.89369958
                ],
                "xyz": [
                    -0.6906517959952327,
                    1.4820883400541802,
                    9.41283792827186
                ],
                "label": "O",
                "properties": {}
            },
            {
                "species": [
                    {
                        "element": "O",
                        "occu": 1
                    }
                ],
                "abc": [
                    0.21391128,
                    0.97717031,
                    0.89369958
                ],
                "xyz": [
                    -1.9855816104315256,
                    6.117457207756827,
                    9.41283792827186
                ],
                "label": "O",
                "properties": {}
            },
            {
                "species": [
                    {
                        "element": "O",
                        "occu": 1
                    }
                ],
                "abc": [
                    0.78608872,
                    0.02282969,
                    0.39369958
                ],
                "xyz": [
                    5.600012410431525,
                    0.1429233722431726,
                    4.14661752327186
                ],
                "label": "O",
                "properties": {}
            },
            {
                "species": [
                    {
                        "element": "O",
                        "occu": 1
                    }
                ],
                "abc": [
                    0.97717031,
                    0.76325903,
                    0.39369958
                ],
                "xyz": [
                    4.305082595995232,
                    4.778292239945819,
                    4.14661752327186
                ],
                "label": "O",
                "properties": {}
            },
            {
                "species": [
                    {
                        "element": "O",
                        "occu": 1
                    }
                ],
                "abc": [
                    0.76325903,
                    0.78608872,
                    0.89369958
                ],
                "xyz": [
                    2.6762305464267584,
                    4.9212145321889915,
                    9.41283792827186
                ],
                "label": "O",
                "properties": {}
            },
            {
                "species": [
                    {
                        "element": "O",
                        "occu": 1
                    }
                ],
                "abc": [
                    0.76325903,
                    0.78608872,
                    0.60630042
                ],
                "xyz": [
                    2.6762305464267584,
                    4.9212145321889915,
                    6.38582328672814
                ],
                "label": "O",
                "properties": {}
            },
            {
                "species": [
                    {
                        "element": "O",
                        "occu": 1
                    }
                ],
                "abc": [
                    0.97717031,
                    0.76325903,
                    0.10630042
                ],
                "xyz": [
                    4.305082595995232,
                    4.778292239945819,
                    1.1196028817281403
                ],
                "label": "O",
                "properties": {}
            },
            {
                "species": [
                    {
                        "element": "O",
                        "occu": 1
                    }
                ],
                "abc": [
                    0.78608872,
                    0.02282969,
                    0.10630042
                ],
                "xyz": [
                    5.600012410431525,
                    0.1429233722431726,
                    1.1196028817281403
                ],
                "label": "O",
                "properties": {}
            },
            {
                "species": [
                    {
                        "element": "O",
                        "occu": 1
                    }
                ],
                "abc": [
                    0.21391128,
                    0.97717031,
                    0.60630042
                ],
                "xyz": [
                    -1.9855816104315256,
                    6.117457207756827,
                    6.38582328672814
                ],
                "label": "O",
                "properties": {}
            },
            {
                "species": [
                    {
                        "element": "O",
                        "occu": 1
                    }
                ],
                "abc": [
                    0.02282969,
                    0.23674097,
                    0.60630042
                ],
                "xyz": [
                    -0.6906517959952327,
                    1.4820883400541802,
                    6.38582328672814
                ],
                "label": "O",
                "properties": {}
            },
            {
                "species": [
                    {
                        "element": "O",
                        "occu": 1
                    }
                ],
                "abc": [
                    0.23674097,
                    0.21391128,
                    0.10630042
                ],
                "xyz": [
                    0.9382002535732412,
                    1.3391660478110077,
                    1.1196028817281403
                ],
                "label": "O",
                "properties": {}
            },
            {
                "species": [
                    {
                        "element": "O",
                        "occu": 1
                    }
                ],
                "abc": [
                    0.48786872,
                    0.06592533,
                    0.25
                ],
                "xyz": [
                    3.288454119355083,
                    0.41271811136095266,
                    2.6331102025
                ],
                "label": "O",
                "properties": {}
            },
            {
                "species": [
                    {
                        "element": "O",
                        "occu": 1
                    }
                ],
                "abc": [
                    0.42194439,
                    0.48786872,
                    0.75
                ],
                "xyz": [
                    1.2868096817382642,
                    3.054243789079181,
                    7.8993306075000005
                ],
                "label": "O",
                "properties": {}
            },
            {
                "species": [
                    {
                        "element": "O",
                        "occu": 1
                    }
                ],
                "abc": [
                    0.06592533,
                    0.57805561,
                    0.75
                ],
                "xyz": [
                    -1.6127783790850612,
                    3.6188475619033516,
                    7.8993306075000005
                ],
                "label": "O",
                "properties": {}
            },
            {
                "species": [
                    {
                        "element": "O",
                        "occu": 1
                    }
                ],
                "abc": [
                    0.93407467,
                    0.42194439,
                    0.25
                ],
                "xyz": [
                    5.227209179085061,
                    2.6415330180966485,
                    2.6331102025
                ],
                "label": "O",
                "properties": {}
            },
            {
                "species": [
                    {
                        "element": "O",
                        "occu": 1
                    }
                ],
                "abc": [
                    0.57805561,
                    0.51213128,
                    0.25
                ],
                "xyz": [
                    2.327621118261736,
                    3.2061367909208185,
                    2.6331102025
                ],
                "label": "O",
                "properties": {}
            },
            {
                "species": [
                    {
                        "element": "O",
                        "occu": 1
                    }
                ],
                "abc": [
                    0.51213128,
                    0.93407467,
                    0.75
                ],
                "xyz": [
                    0.32597668064491625,
                    5.847662468639047,
                    7.8993306075000005
                ],
                "label": "O",
                "properties": {}
            }
        ]
    },
    "spacegroup": {
        "source": "spglib",
        "symbol": "P6_3/m",
        "number": 176,
        "point_group": "6/m",
        "crystal_system": "hexagonal",
        "hall": "-P 6c"
    },
    "dielectric": {
        "epsilon_ionic": [
            [
                7.11046392,
                -0.00046247,
                -0.0
            ],
            [
                -0.00046247,
                7.11019869,
                -0.0
            ],
            [
                -0.0,
                -0.0,
                8.10492145
            ]
        ],
        "epsilon_ionic_avg": 7.4418613533333335,
        "epsilon_ionic_eig": [
            7.110812413344476,
            7.109850196655524,
            8.10492145
        ],
        "epsilon_electronic": [
            [
                3.65418938,
                4.47e-06,
                0.0
            ],
            [
                -4.47e-06,
                3.65418954,
                0.0
            ],
            [
                -0.0,
                -0.0,
                4.11063136
            ]
        ],
        "epsilon_electronic_avg": 3.8063367599999993,
        "epsilon_electronic_eig": [
            3.6541894599999996,
            3.6541894599999996,
            4.11063136
        ]
    },
    "phonon": {
        "lowest_freq": -0.10060211640820349,
        "frequency": [
            -0.10060211640820349,
            -0.049811768786119225,
            -0.049811767804824485,
            1.6238920861524193,
            1.6238921237780921,
            1.6423791513712953,
            1.6423791662521545,
            1.6468715729057586,
            1.8951880425048484,
            1.8951880811923225,
            1.9946824392290712,
            2.085382104287934,
            2.2743133836940377,
            2.3438134684915264,
            2.343813494560168,
            2.3591429863681395,
            2.359143038166638,
            2.9545304614521,
            3.397087944961974,
            3.397088013308783,
            3.5578195498435337,
            3.5578195773210517,
            3.6614055141400006,
            3.938629648131667,
            4.492386764384555,
            4.566985531611685,
            4.566985566396136,
            4.837865084667163,
            4.837865127607615,
            5.0252304682136355,
            5.0252304682136355,
            5.128335268175276,
            5.128335292003683,
            5.617930428300191,
            5.617930450051984,
            6.084090674915222,
            6.126124056087758,
            6.4806507975020216,
            6.612415512660345,
            6.6124155865819345,
            7.224894112541006,
            7.2248941632822605,
            7.2268281779809715,
            7.902597080143274,
            8.130438231204852,
            8.130438291324646,
            8.285201829308924,
            8.56321011800756,
            8.563210160818633,
            8.709918618737868,
            8.709918660827835,
            9.678868402822111,
            10.188971770700636,
            10.460208162264342,
            10.460208208993837,
            11.176175085885317,
            11.176175140555213,
            11.319280389205826,
            12.390805054216461,
            12.390805212010973,
            12.432171078945156,
            13.085071299193896,
            13.295787575416737,
            13.554037239791617,
            13.554037420106992,
            13.57382059175128,
            14.023586136550396,
            14.315297028360911,
            14.76939540900271,
            14.769395524836897,
            14.876694695987304,
            14.876694819200223,
            21.969266487310485,
            21.969266598556864,
            21.989593588762904,
            21.989593755478218,
            22.064635478354884,
            22.792966053526207,
            22.818118681743062,
            22.89696443191446,
            22.896964485284006,
            23.016487445118713,
            23.016487498211117,
            25.469059241911946,
            25.69108490936325,
            25.69108509962391,
            26.051820596673565,
            26.05182078429971,
            26.760635982261253,
            27.70355083794625
        ]
    },
    "born_effective_charge": {
        "avg_abs_trace": 2.644640666666666,
        "tensors": [
            [
                [
                    1.52613,
                    -0.0134,
                    0.0004
                ],
                [
                    0.01325,
                    1.52616,
                    -0.00028
                ],
                [
                    -0.0,
                    0.0,
                    1.09538
                ]
            ],
            [
                [
                    1.52612,
                    -0.01331,
                    -0.00046
                ],
                [
                    0.01328,
                    1.52605,
                    0.00024
                ],
                [
                    -0.0,
                    0.0,
                    1.09538
                ]
            ],
            [
                [
                    1.52612,
                    -0.01331,
                    0.00046
                ],
                [
                    0.01328,
                    1.52605,
                    -0.00024
                ],
                [
                    -0.0,
                    0.0,
                    1.09541
                ]
            ],
            [
                [
                    1.52613,
                    -0.0134,
                    -0.0004
                ],
                [
                    0.01325,
                    1.52616,
                    0.00028
                ],
                [
                    -0.0,
                    0.0,
                    1.09541
                ]
            ],
            [
                [
                    5.31713,
                    0.85987,
                    0.00229
                ],
                [
                    -0.86014,
                    5.31718,
                    -0.00174
                ],
                [
                    -0.0,
                    0.0,
                    6.85748
                ]
            ],
            [
                [
                    5.31713,
                    0.85987,
                    -0.00229
                ],
                [
                    -0.86014,
                    5.31718,
                    0.00174
                ],
                [
                    -0.0,
                    0.0,
                    6.85748
                ]
            ],
            [
                [
                    3.76395,
                    -0.92002,
                    -0.0
                ],
                [
                    -0.3077,
                    3.41105,
                    0.0
                ],
                [
                    3e-05,
                    -3e-05,
                    4.06561
                ]
            ],
            [
                [
                    4.02791,
                    0.15227,
                    -0.0
                ],
                [
                    0.76587,
                    3.1451,
                    0.0
                ],
                [
                    -4e-05,
                    -1e-05,
                    4.06561
                ]
            ],
            [
                [
                    2.96856,
                    -0.15034,
                    -0.0
                ],
                [
                    0.45885,
                    4.20363,
                    0.0
                ],
                [
                    1e-05,
                    4e-05,
                    4.06561
                ]
            ],
            [
                [
                    4.02784,
                    0.15193,
                    -0.0
                ],
                [
                    0.76581,
                    3.14463,
                    0.0
                ],
                [
                    4e-05,
                    1e-05,
                    4.06561
                ]
            ],
            [
                [
                    2.96895,
                    -0.15044,
                    -0.0
                ],
                [
                    0.45991,
                    4.20387,
                    0.0
                ],
                [
                    -1e-05,
                    -4e-05,
                    4.06561
                ]
            ],
            [
                [
                    3.76381,
                    -0.91983,
                    -0.0
                ],
                [
                    -0.30775,
                    3.4118,
                    0.0
                ],
                [
                    -3e-05,
                    3e-05,
                    4.06561
                ]
            ],
            [
                [
                    -2.02619,
                    -0.77065,
                    1.0188
                ],
                [
                    -0.69645,
                    -1.96119,
                    0.84387
                ],
                [
                    1.0628,
                    0.94972,
                    -2.86755
                ]
            ],
            [
                [
                    -1.34177,
                    0.3012,
                    -0.22059
                ],
                [
                    0.37559,
                    -2.64504,
                    1.3042
                ],
                [
                    -0.29108,
                    1.39527,
                    -2.86755
                ]
            ],
            [
                [
                    -2.61326,
                    0.35829,
                    1.24141
                ],
                [
                    0.43281,
                    -1.37476,
                    -0.46079
                ],
                [
                    1.35388,
                    -0.44555,
                    -2.86755
                ]
            ],
            [
                [
                    -2.61339,
                    0.35787,
                    -1.2407
                ],
                [
                    0.43287,
                    -1.37527,
                    0.46181
                ],
                [
                    -1.35388,
                    0.44555,
                    -2.86755
                ]
            ],
            [
                [
                    -1.342,
                    0.3008,
                    0.22031
                ],
                [
                    0.37534,
                    -2.64536,
                    -1.3046
                ],
                [
                    0.29108,
                    -1.39527,
                    -2.86755
                ]
            ],
            [
                [
                    -2.02638,
                    -0.7704,
                    -1.01916
                ],
                [
                    -0.69669,
                    -1.96099,
                    -0.84444
                ],
                [
                    -1.0628,
                    -0.94972,
                    -2.86755
                ]
            ],
            [
                [
                    -2.02638,
                    -0.7704,
                    1.01916
                ],
                [
                    -0.69669,
                    -1.96099,
                    0.84444
                ],
                [
                    1.0629,
                    0.94981,
                    -2.86762
                ]
            ],
            [
                [
                    -1.342,
                    0.3008,
                    -0.22031
                ],
                [
                    0.37534,
                    -2.64536,
                    1.3046
                ],
                [
                    -0.29111,
                    1.3954,
                    -2.86762
                ]
            ],
            [
                [
                    -2.61339,
                    0.35787,
                    1.2407
                ],
                [
                    0.43287,
                    -1.37527,
                    -0.46181
                ],
                [
                    1.35401,
                    -0.44559,
                    -2.86762
                ]
            ],
            [
                [
                    -2.61326,
                    0.35829,
                    -1.24141
                ],
                [
                    0.43281,
                    -1.37476,
                    0.46079
                ],
                [
                    -1.35401,
                    0.44559,
                    -2.86762
                ]
            ],
            [
                [
                    -1.34177,
                    0.3012,
                    0.22059
                ],
                [
                    0.37559,
                    -2.64504,
                    -1.3042
                ],
                [
                    0.29111,
                    -1.3954,
                    -2.86762
                ]
            ],
            [
                [
                    -2.02619,
                    -0.77065,
                    -1.0188
                ],
                [
                    -0.69645,
                    -1.96119,
                    -0.84387
                ],
                [
                    -1.0629,
                    -0.94981,
                    -2.86762
                ]
            ],
            [
                [
                    -3.31625,
                    0.3908,
                    -0.0
                ],
                [
                    0.18529,
                    -1.46086,
                    0.0
                ],
                [
                    3e-05,
                    4e-05,
                    -1.34653
                ]
            ],
            [
                [
                    -2.17411,
                    -0.84474,
                    -0.0
                ],
                [
                    -1.04902,
                    -2.60447,
                    0.0
                ],
                [
                    -2e-05,
                    5e-05,
                    -1.34653
                ]
            ],
            [
                [
                    -1.67629,
                    0.76201,
                    -0.0
                ],
                [
                    0.55724,
                    -3.10154,
                    0.0
                ],
                [
                    5e-05,
                    -1e-05,
                    -1.34653
                ]
            ],
            [
                [
                    -1.67592,
                    0.76236,
                    -0.0
                ],
                [
                    0.5564,
                    -3.1016,
                    0.0
                ],
                [
                    -5e-05,
                    1e-05,
                    -1.34653
                ]
            ],
            [
                [
                    -2.17475,
                    -0.84403,
                    -0.0
                ],
                [
                    -1.05038,
                    -2.60399,
                    0.0
                ],
                [
                    2e-05,
                    -5e-05,
                    -1.34653
                ]
            ],
            [
                [
                    -3.31648,
                    0.38947,
                    -0.0
                ],
                [
                    0.18576,
                    -1.46116,
                    0.0
                ],
                [
                    -3e-05,
                    -4e-05,
                    -1.34653
                ]
            ]
        ]
    },
    "band_gap": 3.1123000000000003,
    "is_direct": false,
    "formula": "Cs2Ti(GeO3)3"
}