{
    "mp_id": "mp-18498",
    "nelements": 4,
    "nsites": 22,
    "elements": [
        "O",
        "Rh",
        "Sr",
        "Y"
    ],
    "structure": {
        "@module": "pymatgen.core.structure",
        "@class": "Structure",
        "charge": null,
        "lattice": {
            "matrix": [
                [
                    4.85617925,
                    2.80371631,
                    3.75074105
                ],
                [
                    -4.85617925,
                    2.80371631,
                    3.75074105
                ],
                [
                    0.0,
                    -5.60743262,
                    3.75074105
                ]
            ],
            "a": 6.746210823806626,
            "b": 6.746210823806626,
            "c": 6.746210715060356,
            "alpha": 92.08222065458422,
            "beta": 92.08222065458422,
            "gamma": 92.08222246939626,
            "volume": 306.405889695057
        },
        "sites": [
            {
                "species": [
                    {
                        "element": "Sr",
                        "occu": 1
                    }
                ],
                "abc": [
                    0.88098783,
                    0.25,
                    0.61901217
                ],
                "xyz": [
                    3.064190007048528,
                    -0.30010000885247745,
                    6.5637968375
                ],
                "label": "Sr",
                "properties": {}
            },
            {
                "species": [
                    {
                        "element": "Sr",
                        "occu": 1
                    }
                ],
                "abc": [
                    0.61901217,
                    0.88098783,
                    0.25
                ],
                "xyz": [
                    -1.2722007640970556,
                    2.8037163099999995,
                    6.563796837499999
                ],
                "label": "Sr",
                "properties": {}
            },
            {
                "species": [
                    {
                        "element": "Sr",
                        "occu": 1
                    }
                ],
                "abc": [
                    0.11901217,
                    0.75,
                    0.38098783
                ],
                "xyz": [
                    -3.0641900070485275,
                    0.30010000885247745,
                    4.6884263125
                ],
                "label": "Sr",
                "properties": {}
            },
            {
                "species": [
                    {
                        "element": "Sr",
                        "occu": 1
                    }
                ],
                "abc": [
                    0.75,
                    0.38098783,
                    0.11901217
                ],
                "xyz": [
                    1.7919892429514725,
                    2.5036163011475216,
                    4.6884263125
                ],
                "label": "Sr",
                "properties": {}
            },
            {
                "species": [
                    {
                        "element": "Sr",
                        "occu": 1
                    }
                ],
                "abc": [
                    0.38098783,
                    0.11901217,
                    0.75
                ],
                "xyz": [
                    1.2722007640970552,
                    -2.8037163099999995,
                    4.6884263125
                ],
                "label": "Sr",
                "properties": {}
            },
            {
                "species": [
                    {
                        "element": "Sr",
                        "occu": 1
                    }
                ],
                "abc": [
                    0.25,
                    0.61901217,
                    0.88098783
                ],
                "xyz": [
                    -1.7919892429514723,
                    -2.5036163011475225,
                    6.5637968375
                ],
                "label": "Sr",
                "properties": {}
            },
            {
                "species": [
                    {
                        "element": "Y",
                        "occu": 1
                    }
                ],
                "abc": [
                    0.75,
                    0.75,
                    0.75
                ],
                "xyz": [
                    0.0,
                    0.0,
                    8.4391673625
                ],
                "label": "Y",
                "properties": {}
            },
            {
                "species": [
                    {
                        "element": "Y",
                        "occu": 1
                    }
                ],
                "abc": [
                    0.25,
                    0.25,
                    0.25
                ],
                "xyz": [
                    0.0,
                    0.0,
                    2.8130557874999997
                ],
                "label": "Y",
                "properties": {}
            },
            {
                "species": [
                    {
                        "element": "Rh",
                        "occu": 1
                    }
                ],
                "abc": [
                    0.5,
                    0.5,
                    0.5
                ],
                "xyz": [
                    0.0,
                    0.0,
                    5.6261115749999995
                ],
                "label": "Rh",
                "properties": {}
            },
            {
                "species": [
                    {
                        "element": "Rh",
                        "occu": 1
                    }
                ],
                "abc": [
                    0.0,
                    0.0,
                    0.0
                ],
                "xyz": [
                    0.0,
                    0.0,
                    0.0
                ],
                "label": "Rh",
                "properties": {}
            },
            {
                "species": [
                    {
                        "element": "O",
                        "occu": 1
                    }
                ],
                "abc": [
                    0.79078495,
                    0.58963908,
                    0.45544438
                ],
                "xyz": [
                    0.9768004001171979,
                    1.3164436946192537,
                    6.88586700778523
                ],
                "label": "O",
                "properties": {}
            },
            {
                "species": [
                    {
                        "element": "O",
                        "occu": 1
                    }
                ],
                "abc": [
                    0.58963908,
                    0.45544438,
                    0.79078495
                ],
                "xyz": [
                    0.651673517599975,
                    -1.5041557819218365,
                    6.8858670077852295
                ],
                "label": "O",
                "properties": {}
            },
            {
                "species": [
                    {
                        "element": "O",
                        "occu": 1
                    }
                ],
                "abc": [
                    0.45544438,
                    0.79078495,
                    0.58963908
                ],
                "xyz": [
                    -1.628473917717173,
                    0.18771208730258282,
                    6.8858670077852295
                ],
                "label": "O",
                "properties": {}
            },
            {
                "species": [
                    {
                        "element": "O",
                        "occu": 1
                    }
                ],
                "abc": [
                    0.04455562,
                    0.91036092,
                    0.70921505
                ],
                "xyz": [
                    -4.204505732400025,
                    -1.299560528078163,
                    6.2417266672147695
                ],
                "label": "O",
                "properties": {}
            },
            {
                "species": [
                    {
                        "element": "O",
                        "occu": 1
                    }
                ],
                "abc": [
                    0.91036092,
                    0.70921505,
                    0.04455562
                ],
                "xyz": [
                    0.9768004001171975,
                    4.290988925380746,
                    6.2417266672147695
                ],
                "label": "O",
                "properties": {}
            },
            {
                "species": [
                    {
                        "element": "O",
                        "occu": 1
                    }
                ],
                "abc": [
                    0.70921505,
                    0.04455562,
                    0.91036092
                ],
                "xyz": [
                    3.2277053322828273,
                    -2.9914283973025833,
                    6.2417266672147695
                ],
                "label": "O",
                "properties": {}
            },
            {
                "species": [
                    {
                        "element": "O",
                        "occu": 1
                    }
                ],
                "abc": [
                    0.20921505,
                    0.41036092,
                    0.54455562
                ],
                "xyz": [
                    -0.9768004001171975,
                    -1.3164436946192537,
                    4.366356142214769
                ],
                "label": "O",
                "properties": {}
            },
            {
                "species": [
                    {
                        "element": "O",
                        "occu": 1
                    }
                ],
                "abc": [
                    0.41036092,
                    0.54455562,
                    0.20921505
                ],
                "xyz": [
                    -0.651673517599975,
                    1.5041557819218363,
                    4.366356142214769
                ],
                "label": "O",
                "properties": {}
            },
            {
                "species": [
                    {
                        "element": "O",
                        "occu": 1
                    }
                ],
                "abc": [
                    0.54455562,
                    0.20921505,
                    0.41036092
                ],
                "xyz": [
                    1.6284739177171725,
                    -0.18771208730258282,
                    4.366356142214769
                ],
                "label": "O",
                "properties": {}
            },
            {
                "species": [
                    {
                        "element": "O",
                        "occu": 1
                    }
                ],
                "abc": [
                    0.95544438,
                    0.08963908,
                    0.29078495
                ],
                "xyz": [
                    4.204505732400025,
                    1.2995605280781637,
                    5.01049648278523
                ],
                "label": "O",
                "properties": {}
            },
            {
                "species": [
                    {
                        "element": "O",
                        "occu": 1
                    }
                ],
                "abc": [
                    0.29078495,
                    0.95544438,
                    0.08963908
                ],
                "xyz": [
                    -3.227705332282828,
                    2.9914283973025824,
                    5.01049648278523
                ],
                "label": "O",
                "properties": {}
            },
            {
                "species": [
                    {
                        "element": "O",
                        "occu": 1
                    }
                ],
                "abc": [
                    0.08963908,
                    0.29078495,
                    0.95544438
                ],
                "xyz": [
                    -0.9768004001171975,
                    -4.290988925380746,
                    5.01049648278523
                ],
                "label": "O",
                "properties": {}
            }
        ]
    },
    "spacegroup": {
        "source": "spglib",
        "symbol": "R-3c",
        "number": 167,
        "point_group": "-3m",
        "crystal_system": "trigonal",
        "hall": "-R 3 2\"c"
    },
    "dielectric": {
        "epsilon_ionic": [
            [
                8.64752724,
                1e-08,
                -1e-08
            ],
            [
                1e-08,
                8.6475087,
                6.15e-06
            ],
            [
                -1e-08,
                6.15e-06,
                9.88927779
            ]
        ],
        "epsilon_ionic_avg": 9.06143791,
        "epsilon_ionic_eig": [
            8.647527240005399,
            8.647508699964144,
            9.889277790030457
        ],
        "epsilon_electronic": [
            [
                4.43423884,
                -0.0,
                -0.0
            ],
            [
                0.0,
                4.4342391,
                -4.6e-07
            ],
            [
                0.0,
                -4.6e-07,
                5.2252391
            ]
        ],
        "epsilon_electronic_avg": 4.697905679999999,
        "epsilon_electronic_eig": [
            5.225239100000267,
            4.434239099999733,
            4.43423884
        ]
    },
    "phonon": {
        "lowest_freq": -0.015000679415292479,
        "frequency": [
            -0.015000679415292479,
            -0.015000678983538462,
            -0.01403874481017429,
            3.229243715543699,
            3.229243730680378,
            3.4865204429756655,
            3.542632608185943,
            3.62451940142387,
            3.70811717495107,
            3.7081172441560395,
            3.7577319834488168,
            3.757732214338205,
            4.153079186283175,
            4.363293752498465,
            4.363293903732918,
            4.4567465352504065,
            4.651570717223735,
            4.651570861712639,
            4.97337366851194,
            4.97337366851194,
            5.050704398426597,
            5.235113012215052,
            5.235113082242231,
            5.919600843066609,
            6.232238048098286,
            6.232238322606556,
            6.240594242683135,
            6.24059434059053,
            6.491456182316688,
            6.658180833880767,
            6.888184934719568,
            7.279779781059459,
            7.8116694868342105,
            7.840193318306017,
            7.840193349478736,
            8.573192137210638,
            9.223996796046473,
            9.223997087503795,
            9.50690079158151,
            9.506900868704475,
            10.291857826770212,
            10.2918579098845,
            11.14931604210383,
            11.149316425715005,
            11.351759504333016,
            11.351759655041011,
            11.40648522565767,
            11.406485825597386,
            12.049426363086665,
            12.098209599544186,
            12.34571151385665,
            12.345711771209308,
            13.98308518147887,
            14.293415645785153,
            14.544418272173093,
            14.736147969898992,
            14.736148119164675,
            15.457020197452247,
            15.457020806198612,
            15.773680217184985,
            15.773680294655847,
            15.834691616922157,
            16.01310355572791,
            16.013104166228242,
            16.452650205121962,
            17.26109383233
        ]
    },
    "born_effective_charge": {
        "avg_abs_trace": 2.3107675757575756,
        "tensors": [
            [
                [
                    2.83725,
                    -0.09472,
                    0.31978
                ],
                [
                    -0.09478,
                    2.72792,
                    -0.18458
                ],
                [
                    0.2277,
                    -0.13146,
                    2.3509
                ]
            ],
            [
                [
                    2.67308,
                    -0.0,
                    -0.0
                ],
                [
                    2e-05,
                    2.89192,
                    0.36925
                ],
                [
                    -1e-05,
                    0.26292,
                    2.3509
                ]
            ],
            [
                [
                    2.83719,
                    -0.0947,
                    0.31978
                ],
                [
                    -0.09465,
                    2.72773,
                    -0.18466
                ],
                [
                    0.22769,
                    -0.13147,
                    2.3509
                ]
            ],
            [
                [
                    2.83719,
                    0.0947,
                    -0.31978
                ],
                [
                    0.09478,
                    2.72792,
                    -0.18458
                ],
                [
                    -0.2277,
                    -0.13146,
                    2.3509
                ]
            ],
            [
                [
                    2.67318,
                    -0.0,
                    -0.0
                ],
                [
                    -2e-05,
                    2.89192,
                    0.36925
                ],
                [
                    1e-05,
                    0.26292,
                    2.3509
                ]
            ],
            [
                [
                    2.83725,
                    0.09472,
                    -0.31978
                ],
                [
                    0.09465,
                    2.72773,
                    -0.18466
                ],
                [
                    -0.22769,
                    -0.13147,
                    2.3509
                ]
            ],
            [
                [
                    2.24949,
                    -0.0,
                    -0.0
                ],
                [
                    -0.00014,
                    2.24963,
                    0.0
                ],
                [
                    0.0,
                    -0.0,
                    5.97912
                ]
            ],
            [
                [
                    2.24979,
                    -0.0,
                    -0.0
                ],
                [
                    0.00014,
                    2.24963,
                    0.0
                ],
                [
                    0.0,
                    -0.0,
                    5.97912
                ]
            ],
            [
                [
                    1.17994,
                    0.05228,
                    -0.0
                ],
                [
                    -0.05228,
                    1.17994,
                    0.0
                ],
                [
                    0.0,
                    -0.0,
                    1.54155
                ]
            ],
            [
                [
                    1.17994,
                    -0.05228,
                    0.0
                ],
                [
                    0.05228,
                    1.17994,
                    0.0
                ],
                [
                    0.0,
                    -0.0,
                    1.54155
                ]
            ],
            [
                [
                    -1.79745,
                    -0.40609,
                    -0.20196
                ],
                [
                    -0.47127,
                    -2.12828,
                    -0.29596
                ],
                [
                    -0.22449,
                    -0.36907,
                    -2.42891
                ]
            ],
            [
                [
                    -1.66569,
                    0.39517,
                    -0.15535
                ],
                [
                    0.33026,
                    -2.25991,
                    0.32305
                ],
                [
                    -0.20738,
                    0.37895,
                    -2.42891
                ]
            ],
            [
                [
                    -2.42549,
                    0.10849,
                    0.35738
                ],
                [
                    0.04346,
                    -1.50013,
                    -0.02702
                ],
                [
                    0.43187,
                    -0.00988,
                    -2.42891
                ]
            ],
            [
                [
                    -1.66569,
                    -0.39517,
                    0.15535
                ],
                [
                    -0.32989,
                    -2.26013,
                    0.32284
                ],
                [
                    0.20728,
                    0.37915,
                    -2.42888
                ]
            ],
            [
                [
                    -1.79745,
                    0.40609,
                    0.20196
                ],
                [
                    0.47114,
                    -2.12834,
                    -0.29607
                ],
                [
                    0.22472,
                    -0.36908,
                    -2.42888
                ]
            ],
            [
                [
                    -2.42549,
                    -0.10849,
                    -0.35738
                ],
                [
                    -0.04355,
                    -1.50035,
                    -0.02685
                ],
                [
                    -0.43199,
                    -0.01007,
                    -2.42888
                ]
            ],
            [
                [
                    -1.79737,
                    -0.40615,
                    -0.20205
                ],
                [
                    -0.47114,
                    -2.12834,
                    -0.29607
                ],
                [
                    -0.22472,
                    -0.36908,
                    -2.42888
                ]
            ],
            [
                [
                    -1.6657,
                    0.39515,
                    -0.15535
                ],
                [
                    0.32989,
                    -2.26013,
                    0.32284
                ],
                [
                    -0.20728,
                    0.37915,
                    -2.42888
                ]
            ],
            [
                [
                    -2.42546,
                    0.10869,
                    0.35732
                ],
                [
                    0.04355,
                    -1.50035,
                    -0.02685
                ],
                [
                    0.43199,
                    -0.01007,
                    -2.42888
                ]
            ],
            [
                [
                    -1.6657,
                    -0.39515,
                    0.15535
                ],
                [
                    -0.33026,
                    -2.25991,
                    0.32305
                ],
                [
                    0.20738,
                    0.37895,
                    -2.42891
                ]
            ],
            [
                [
                    -2.42546,
                    -0.10869,
                    -0.35732
                ],
                [
                    -0.04346,
                    -1.50013,
                    -0.02702
                ],
                [
                    -0.43187,
                    -0.00988,
                    -2.42891
                ]
            ],
            [
                [
                    -1.79737,
                    0.40615,
                    0.20205
                ],
                [
                    0.47127,
                    -2.12828,
                    -0.29596
                ],
                [
                    0.22449,
                    -0.36907,
                    -2.42891
                ]
            ]
        ]
    },
    "band_gap": 2.8073,
    "is_direct": false,
    "formula": "Sr3YRhO6"
}