{
    "mp_id": "mp-1104363",
    "nelements": 4,
    "nsites": 14,
    "elements": [
        "K",
        "O",
        "Sc",
        "V"
    ],
    "structure": {
        "@module": "pymatgen.core.structure",
        "@class": "Structure",
        "charge": null,
        "lattice": {
            "matrix": [
                [
                    5.76466941,
                    0.0,
                    0.0
                ],
                [
                    -2.8823342,
                    4.9923503,
                    0.0
                ],
                [
                    0.0,
                    0.0,
                    7.47337297
                ]
            ],
            "a": 5.76466941,
            "b": 5.764669284390886,
            "c": 7.47337297,
            "alpha": 90.0,
            "beta": 90.0,
            "gamma": 119.99999492504898,
            "volume": 215.07806201005155
        },
        "sites": [
            {
                "species": [
                    {
                        "element": "K",
                        "occu": 1
                    }
                ],
                "abc": [
                    0.333333,
                    0.666667,
                    0.68410603
                ],
                "xyz": [
                    -2.5456678700574997e-06,
                    3.3282351974501,
                    5.1125795132160095
                ],
                "label": "K",
                "properties": {}
            },
            {
                "species": [
                    {
                        "element": "K",
                        "occu": 1
                    }
                ],
                "abc": [
                    0.666667,
                    0.333333,
                    0.31589397
                ],
                "xyz": [
                    2.88233775566787,
                    1.6641151025499,
                    2.360793456783991
                ],
                "label": "K",
                "properties": {}
            },
            {
                "species": [
                    {
                        "element": "K",
                        "occu": 1
                    }
                ],
                "abc": [
                    0.0,
                    0.0,
                    0.0
                ],
                "xyz": [
                    0.0,
                    0.0,
                    0.0
                ],
                "label": "K",
                "properties": {}
            },
            {
                "species": [
                    {
                        "element": "Sc",
                        "occu": 1
                    }
                ],
                "abc": [
                    0.0,
                    0.0,
                    0.5
                ],
                "xyz": [
                    0.0,
                    0.0,
                    3.736686485
                ],
                "label": "Sc",
                "properties": {}
            },
            {
                "species": [
                    {
                        "element": "V",
                        "occu": 1
                    }
                ],
                "abc": [
                    0.333333,
                    0.666667,
                    0.25288963
                ],
                "xyz": [
                    -2.5456678700574997e-06,
                    3.3282351974501,
                    1.889938525235301
                ],
                "label": "V",
                "properties": {}
            },
            {
                "species": [
                    {
                        "element": "V",
                        "occu": 1
                    }
                ],
                "abc": [
                    0.666667,
                    0.333333,
                    0.74711037
                ],
                "xyz": [
                    2.88233775566787,
                    1.6641151025499,
                    5.583434444764699
                ],
                "label": "V",
                "properties": {}
            },
            {
                "species": [
                    {
                        "element": "O",
                        "occu": 1
                    }
                ],
                "abc": [
                    0.333333,
                    0.666667,
                    0.03046511
                ],
                "xyz": [
                    -2.5456678700574997e-06,
                    3.3282351974501,
                    0.2276771296020767
                ],
                "label": "O",
                "properties": {}
            },
            {
                "species": [
                    {
                        "element": "O",
                        "occu": 1
                    }
                ],
                "abc": [
                    0.666667,
                    0.333333,
                    0.96953489
                ],
                "xyz": [
                    2.88233775566787,
                    1.6641151025499,
                    7.245695840397923
                ],
                "label": "O",
                "properties": {}
            },
            {
                "species": [
                    {
                        "element": "O",
                        "occu": 1
                    }
                ],
                "abc": [
                    0.16899424,
                    0.83100576,
                    0.33439111
                ],
                "xyz": [
                    -1.4210403966507938,
                    4.148671855237728,
                    2.4990294828822965
                ],
                "label": "O",
                "properties": {}
            },
            {
                "species": [
                    {
                        "element": "O",
                        "occu": 1
                    }
                ],
                "abc": [
                    0.83100576,
                    0.16899424,
                    0.66560889
                ],
                "xyz": [
                    4.3033756066507936,
                    0.8436784447622719,
                    4.974343487117703
                ],
                "label": "O",
                "properties": {}
            },
            {
                "species": [
                    {
                        "element": "O",
                        "occu": 1
                    }
                ],
                "abc": [
                    0.16899424,
                    0.33798848,
                    0.33439111
                ],
                "xyz": [
                    1.7068418245447248e-07,
                    1.6873568895245439,
                    2.4990294828822965
                ],
                "label": "O",
                "properties": {}
            },
            {
                "species": [
                    {
                        "element": "O",
                        "occu": 1
                    }
                ],
                "abc": [
                    0.83100576,
                    0.66201152,
                    0.66560889
                ],
                "xyz": [
                    2.8823350393158176,
                    3.304993410475456,
                    4.974343487117703
                ],
                "label": "O",
                "properties": {}
            },
            {
                "species": [
                    {
                        "element": "O",
                        "occu": 1
                    }
                ],
                "abc": [
                    0.66201152,
                    0.83100576,
                    0.33439111
                ],
                "xyz": [
                    1.4210412359666105,
                    4.148671855237728,
                    2.4990294828822965
                ],
                "label": "O",
                "properties": {}
            },
            {
                "species": [
                    {
                        "element": "O",
                        "occu": 1
                    }
                ],
                "abc": [
                    0.33798848,
                    0.16899424,
                    0.66560889
                ],
                "xyz": [
                    1.4612939740333888,
                    0.8436784447622719,
                    4.974343487117703
                ],
                "label": "O",
                "properties": {}
            }
        ]
    },
    "spacegroup": {
        "source": "spglib",
        "symbol": "P-3m1",
        "number": 164,
        "point_group": "-3m",
        "crystal_system": "trigonal",
        "hall": "-P 3 2\""
    },
    "dielectric": {
        "epsilon_ionic": [
            [
                15.49844764,
                -1.31e-06,
                -0.0
            ],
            [
                -1.31e-06,
                15.49729628,
                0.00050058
            ],
            [
                -0.0,
                0.00050058,
                5.27974935
            ]
        ],
        "epsilon_ionic_avg": 12.091831090000005,
        "epsilon_ionic_eig": [
            15.498447641490532,
            15.49729630303399,
            5.27974932547549
        ],
        "epsilon_electronic": [
            [
                3.69112185,
                -3.7e-07,
                0.0
            ],
            [
                -3.7e-07,
                3.69112215,
                0.0
            ],
            [
                0.0,
                0.0,
                3.51285746
            ]
        ],
        "epsilon_electronic_avg": 3.6317004866666664,
        "epsilon_electronic_eig": [
            3.6911216007507046,
            3.6911223992492954,
            3.51285746
        ]
    },
    "phonon": {
        "lowest_freq": -0.12915145837736744,
        "frequency": [
            -0.12915145837736744,
            -0.12915144446857318,
            -0.01630346997471423,
            1.0800003218730148,
            1.080000435021184,
            1.2690679517822607,
            1.2690680422959777,
            3.168137397438086,
            3.1681376481533476,
            3.2497408515926924,
            3.7152880983299705,
            3.734493145620743,
            4.0437832562178615,
            4.043783652089915,
            4.630219806416031,
            4.630220286747672,
            4.917890444328521,
            4.988667112182809,
            4.988667651084532,
            5.0376561314464805,
            6.754695215594698,
            7.769901968054356,
            7.76990267578564,
            9.222514271952624,
            9.222514642957936,
            9.278800483659154,
            10.062569958256992,
            10.062570310433609,
            10.9286953559089,
            10.968936138610134,
            10.968936695638005,
            11.107540062350624,
            11.107540656433862,
            11.243185321812568,
            21.99404732631766,
            21.994048882012102,
            22.172231637617287,
            22.172233125695588,
            24.46018639546618,
            26.204227715464416,
            27.528613974389863,
            28.51713306759434
        ]
    },
    "born_effective_charge": {
        "avg_abs_trace": 2.344554285714285,
        "tensors": [
            [
                [
                    1.12649,
                    7e-05,
                    -0.0
                ],
                [
                    -0.0,
                    1.12663,
                    2e-05
                ],
                [
                    0.0,
                    0.0,
                    1.28956
                ]
            ],
            [
                [
                    1.12649,
                    -7e-05,
                    0.0
                ],
                [
                    -0.0,
                    1.12667,
                    2e-05
                ],
                [
                    0.0,
                    0.0,
                    1.28959
                ]
            ],
            [
                [
                    1.2448,
                    0.0,
                    0.0
                ],
                [
                    -0.0,
                    1.24495,
                    0.00025
                ],
                [
                    0.0,
                    0.0,
                    1.28334
                ]
            ],
            [
                [
                    5.94522,
                    0.0,
                    0.0
                ],
                [
                    -0.0,
                    5.94533,
                    0.00033
                ],
                [
                    0.0,
                    0.0,
                    4.53075
                ]
            ],
            [
                [
                    3.70394,
                    -0.00037,
                    -0.0
                ],
                [
                    -0.0,
                    3.70398,
                    7e-05
                ],
                [
                    0.0,
                    0.0,
                    3.57005
                ]
            ],
            [
                [
                    3.70394,
                    0.00037,
                    0.0
                ],
                [
                    -0.0,
                    3.70412,
                    1e-05
                ],
                [
                    0.0,
                    0.0,
                    3.56979
                ]
            ],
            [
                [
                    -0.67964,
                    7e-05,
                    -7e-05
                ],
                [
                    0.0,
                    -0.67931,
                    0.0
                ],
                [
                    0.0,
                    0.0,
                    -3.21641
                ]
            ],
            [
                [
                    -0.67964,
                    -7e-05,
                    7e-05
                ],
                [
                    0.0,
                    -0.67946,
                    7e-05
                ],
                [
                    0.0,
                    0.0,
                    -3.21616
                ]
            ],
            [
                [
                    -3.30643,
                    1.25543,
                    1.28012
                ],
                [
                    1.25493,
                    -1.85757,
                    -0.73911
                ],
                [
                    1.01732,
                    -0.58735,
                    -1.51671
                ]
            ],
            [
                [
                    -3.30697,
                    1.25482,
                    1.27995
                ],
                [
                    1.25499,
                    -1.85748,
                    -0.73906
                ],
                [
                    1.01748,
                    -0.58744,
                    -1.51679
                ]
            ],
            [
                [
                    -1.1324,
                    -0.00016,
                    -0.00018
                ],
                [
                    0.0,
                    -4.03135,
                    1.47782
                ],
                [
                    -0.0,
                    1.1747,
                    -1.51671
                ]
            ],
            [
                [
                    -1.1324,
                    0.00016,
                    0.00018
                ],
                [
                    0.0,
                    -4.03147,
                    1.47773
                ],
                [
                    -0.0,
                    1.17489,
                    -1.51679
                ]
            ],
            [
                [
                    -3.30697,
                    -1.25482,
                    -1.27995
                ],
                [
                    -1.25493,
                    -1.85757,
                    -0.73911
                ],
                [
                    -1.01732,
                    -0.58735,
                    -1.51671
                ]
            ],
            [
                [
                    -3.30643,
                    -1.25543,
                    -1.28012
                ],
                [
                    -1.25499,
                    -1.85748,
                    -0.73906
                ],
                [
                    -1.01748,
                    -0.58744,
                    -1.51679
                ]
            ]
        ]
    },
    "band_gap": 3.1258,
    "is_direct": false,
    "formula": "K3ScV2O8"
}