{
    "mp_id": "mp-1228058",
    "nelements": 5,
    "nsites": 15,
    "elements": [
        "Ba",
        "Mg",
        "Nb",
        "O",
        "Ta"
    ],
    "structure": {
        "@module": "pymatgen.core.structure",
        "@class": "Structure",
        "charge": null,
        "lattice": {
            "matrix": [
                [
                    5.79193073,
                    0.0,
                    0.0
                ],
                [
                    -2.89596587,
                    5.01595964,
                    0.0
                ],
                [
                    0.0,
                    0.0,
                    7.11816552
                ]
            ],
            "a": 5.79193073,
            "b": 5.791931407597451,
            "c": 7.11816552,
            "alpha": 90.0,
            "beta": 90.0,
            "gamma": 120.00000189846655,
            "volume": 206.79759086951992
        },
        "sites": [
            {
                "species": [
                    {
                        "element": "Ba",
                        "occu": 1
                    }
                ],
                "abc": [
                    0.333333,
                    0.666667,
                    0.00082195
                ],
                "xyz": [
                    -3.232632199923202e-06,
                    3.34397476531988,
                    0.005850776149164
                ],
                "label": "Ba",
                "properties": {}
            },
            {
                "species": [
                    {
                        "element": "Ba",
                        "occu": 1
                    }
                ],
                "abc": [
                    0.666667,
                    0.333333,
                    0.66106463
                ],
                "xyz": [
                    2.8959680926322,
                    1.67198487468012,
                    4.705567455757558
                ],
                "label": "Ba",
                "properties": {}
            },
            {
                "species": [
                    {
                        "element": "Ba",
                        "occu": 1
                    }
                ],
                "abc": [
                    0.0,
                    0.0,
                    0.33673835
                ],
                "xyz": [
                    0.0,
                    0.0,
                    2.396959312231692
                ],
                "label": "Ba",
                "properties": {}
            },
            {
                "species": [
                    {
                        "element": "Mg",
                        "occu": 1
                    }
                ],
                "abc": [
                    0.333333,
                    0.666667,
                    0.49747725
                ],
                "xyz": [
                    -3.232632199923202e-06,
                    3.34397476531988,
                    3.5411254079344197
                ],
                "label": "Mg",
                "properties": {}
            },
            {
                "species": [
                    {
                        "element": "Ta",
                        "occu": 1
                    }
                ],
                "abc": [
                    0.666667,
                    0.333333,
                    0.17582763
                ],
                "xyz": [
                    2.8959680926322,
                    1.67198487468012,
                    1.2515701733293176
                ],
                "label": "Ta",
                "properties": {}
            },
            {
                "species": [
                    {
                        "element": "Nb",
                        "occu": 1
                    }
                ],
                "abc": [
                    0.0,
                    0.0,
                    0.82286832
                ],
                "xyz": [
                    0.0,
                    0.0,
                    5.857312902924326
                ],
                "label": "Nb",
                "properties": {}
            },
            {
                "species": [
                    {
                        "element": "O",
                        "occu": 1
                    }
                ],
                "abc": [
                    0.99120792,
                    0.49560446,
                    0.32652922
                ],
                "xyz": [
                    4.305754010487601,
                    2.4859319687639947,
                    2.3242890350764944
                ],
                "label": "O",
                "properties": {}
            },
            {
                "species": [
                    {
                        "element": "O",
                        "occu": 1
                    }
                ],
                "abc": [
                    0.50439554,
                    0.49560446,
                    0.32652922
                ],
                "xyz": [
                    1.4861704270211635,
                    2.4859319687639947,
                    2.3242890350764944
                ],
                "label": "O",
                "properties": {}
            },
            {
                "species": [
                    {
                        "element": "O",
                        "occu": 1
                    }
                ],
                "abc": [
                    0.50439554,
                    0.00879208,
                    0.32652922
                ],
                "xyz": [
                    2.8959624645946342,
                    0.044100718431651205,
                    2.3242890350764944
                ],
                "label": "O",
                "properties": {}
            },
            {
                "species": [
                    {
                        "element": "O",
                        "occu": 1
                    }
                ],
                "abc": [
                    0.67315121,
                    0.83657511,
                    0.67354788
                ],
                "xyz": [
                    1.476152212884188,
                    4.1962269875885605,
                    4.794425295485097
                ],
                "label": "O",
                "properties": {}
            },
            {
                "species": [
                    {
                        "element": "O",
                        "occu": 1
                    }
                ],
                "abc": [
                    0.16342489,
                    0.83657511,
                    0.67354788
                ],
                "xyz": [
                    -1.4761473238136258,
                    4.1962269875885605,
                    4.794425295485097
                ],
                "label": "O",
                "properties": {}
            },
            {
                "species": [
                    {
                        "element": "O",
                        "occu": 1
                    }
                ],
                "abc": [
                    0.16342489,
                    0.32684879,
                    0.67354788
                ],
                "xyz": [
                    2.7019470724143346e-06,
                    1.6394603390228357,
                    4.794425295485097
                ],
                "label": "O",
                "properties": {}
            },
            {
                "species": [
                    {
                        "element": "O",
                        "occu": 1
                    }
                ],
                "abc": [
                    0.83223404,
                    0.16776596,
                    0.00165552
                ],
                "xyz": [
                    4.334397416520264,
                    0.8415072843258544,
                    0.011784265381670399
                ],
                "label": "O",
                "properties": {}
            },
            {
                "species": [
                    {
                        "element": "O",
                        "occu": 1
                    }
                ],
                "abc": [
                    0.83223404,
                    0.66446707,
                    0.00165552
                ],
                "xyz": [
                    2.895967954369148,
                    3.332940005229055,
                    0.011784265381670399
                ],
                "label": "O",
                "properties": {}
            },
            {
                "species": [
                    {
                        "element": "O",
                        "occu": 1
                    }
                ],
                "abc": [
                    0.33553293,
                    0.16776596,
                    0.00165552
                ],
                "xyz": [
                    1.4575389938861538,
                    0.8415072843258544,
                    0.011784265381670399
                ],
                "label": "O",
                "properties": {}
            }
        ]
    },
    "spacegroup": {
        "source": "spglib",
        "symbol": "P3m1",
        "number": 156,
        "point_group": "3m",
        "crystal_system": "trigonal",
        "hall": "P 3 -2\""
    },
    "dielectric": {
        "epsilon_ionic": [
            [
                22.42051568,
                0.00060744,
                -0.00097901
            ],
            [
                0.00060744,
                22.43039641,
                0.00063502
            ],
            [
                -0.00097901,
                0.00063502,
                18.4193373
            ]
        ],
        "epsilon_ionic_avg": 21.09008313000001,
        "epsilon_ionic_eig": [
            18.419336959873753,
            22.420478734335628,
            22.43043369579065
        ],
        "epsilon_electronic": [
            [
                4.73113256,
                -4.7e-07,
                -0.0
            ],
            [
                -4.7e-07,
                4.73113184,
                0.0
            ],
            [
                -0.0,
                0.0,
                4.6225197
            ]
        ],
        "epsilon_electronic_avg": 4.6949280333333325,
        "epsilon_electronic_eig": [
            4.7311327920304045,
            4.731131607969595,
            4.6225197
        ]
    },
    "phonon": {
        "lowest_freq": -0.05268038862710361,
        "frequency": [
            -0.05268038862710361,
            -0.052680381900118055,
            -0.025741289212326164,
            2.9165708891651656,
            2.963641865010805,
            2.963642236108452,
            3.070482593221964,
            3.221470579523437,
            3.221470981613285,
            3.912365670892883,
            3.9123661581481826,
            3.921025764115829,
            4.463243979931217,
            4.625262814255665,
            4.674421169275075,
            4.674421631993554,
            4.825735227528445,
            4.82573560483487,
            7.087494559966848,
            7.139624173048272,
            7.1396246351736705,
            7.534848541616378,
            7.688537186384874,
            7.688537567836044,
            8.305506105875038,
            8.305506709113716,
            8.555185075594501,
            9.514698401900716,
            9.514699544953782,
            9.580823743380968,
            10.904475607837005,
            10.90447596644224,
            11.717278073294477,
            11.717278386165939,
            12.322436375109755,
            12.561251661366862,
            15.759563821966857,
            15.75956405458763,
            17.078716879811594,
            17.078717595322395,
            17.611322982106554,
            18.46034707432886,
            18.460347736288586,
            22.978831062870366,
            23.529224202782302
        ]
    },
    "born_effective_charge": {
        "avg_abs_trace": 3.1679184444444446,
        "tensors": [
            [
                [
                    3.02311,
                    0.00011,
                    4e-05
                ],
                [
                    0.0,
                    3.02363,
                    6e-05
                ],
                [
                    0.0,
                    0.0,
                    2.11848
                ]
            ],
            [
                [
                    2.64955,
                    6e-05,
                    0.00015
                ],
                [
                    0.0,
                    2.65022,
                    -7e-05
                ],
                [
                    0.0,
                    0.0,
                    3.04771
                ]
            ],
            [
                [
                    2.61222,
                    -6e-05,
                    0.00024
                ],
                [
                    0.0,
                    2.61289,
                    -2e-05
                ],
                [
                    0.0,
                    0.0,
                    3.11428
                ]
            ],
            [
                [
                    2.75222,
                    0.0001,
                    0.00022
                ],
                [
                    -0.0,
                    2.75325,
                    -9e-05
                ],
                [
                    0.0,
                    0.0,
                    2.90771
                ]
            ],
            [
                [
                    6.54885,
                    -0.00055,
                    -0.00072
                ],
                [
                    -0.0,
                    6.54942,
                    0.00029
                ],
                [
                    0.0,
                    0.0,
                    6.13751
                ]
            ],
            [
                [
                    6.46237,
                    0.00088,
                    -0.00186
                ],
                [
                    -0.0,
                    6.46335,
                    0.00086
                ],
                [
                    0.0,
                    0.0,
                    5.8514
                ]
            ],
            [
                [
                    -2.78333,
                    -0.42996,
                    -0.51003
                ],
                [
                    -0.42985,
                    -2.2875,
                    -0.29447
                ],
                [
                    -0.67102,
                    -0.38741,
                    -2.55057
                ]
            ],
            [
                [
                    -2.78372,
                    0.42984,
                    0.51068
                ],
                [
                    0.42985,
                    -2.2875,
                    -0.29447
                ],
                [
                    0.67102,
                    -0.38741,
                    -2.55057
                ]
            ],
            [
                [
                    -2.03884,
                    8e-05,
                    0.00029
                ],
                [
                    0.0,
                    -3.0322,
                    0.58862
                ],
                [
                    -0.0,
                    0.77483,
                    -2.55057
                ]
            ],
            [
                [
                    -2.81099,
                    -0.48758,
                    -0.58627
                ],
                [
                    -0.4874,
                    -2.24887,
                    -0.33841
                ],
                [
                    -0.65094,
                    -0.37582,
                    -2.43639
                ]
            ],
            [
                [
                    -2.81111,
                    0.48708,
                    0.58657
                ],
                [
                    0.4874,
                    -2.24887,
                    -0.33841
                ],
                [
                    0.65094,
                    -0.37582,
                    -2.43639
                ]
            ],
            [
                [
                    -1.96697,
                    0.0001,
                    0.00014
                ],
                [
                    0.0,
                    -3.0932,
                    0.67648
                ],
                [
                    -0.0,
                    0.75164,
                    -2.43639
                ]
            ],
            [
                [
                    -3.50356,
                    0.95635,
                    1.45548
                ],
                [
                    0.9567,
                    -2.39916,
                    -0.84064
                ],
                [
                    1.118,
                    -0.64548,
                    -2.73874
                ]
            ],
            [
                [
                    -1.84651,
                    0.00015,
                    0.00044
                ],
                [
                    0.0,
                    -4.0563,
                    1.68091
                ],
                [
                    -0.0,
                    1.29095,
                    -2.73874
                ]
            ],
            [
                [
                    -3.50327,
                    -0.95659,
                    -1.45537
                ],
                [
                    -0.9567,
                    -2.39916,
                    -0.84064
                ],
                [
                    -1.118,
                    -0.64548,
                    -2.73874
                ]
            ]
        ]
    },
    "band_gap": 3.0867999999999998,
    "is_direct": false,
    "formula": "Ba3MgTaNbO9"
}