{
    "mp_id": "mp-16280",
    "nelements": 3,
    "nsites": 22,
    "elements": [
        "Ca",
        "O",
        "Sb"
    ],
    "structure": {
        "@module": "pymatgen.core.structure",
        "@class": "Structure",
        "charge": null,
        "lattice": {
            "matrix": [
                [
                    -3.66531879,
                    5.11712393,
                    3.73452362
                ],
                [
                    3.66531879,
                    -5.11712393,
                    3.73452362
                ],
                [
                    3.66531879,
                    5.11712393,
                    -3.73452362
                ]
            ],
            "a": 7.318892389948332,
            "b": 7.318892389948332,
            "c": 7.318892389948332,
            "alpha": 119.89380038214253,
            "beta": 91.27966902545835,
            "gamma": 118.63796282978143,
            "volume": 280.1772642168823
        },
        "sites": [
            {
                "species": [
                    {
                        "element": "Ca",
                        "occu": 1
                    }
                ],
                "abc": [
                    0.0,
                    0.5,
                    0.0
                ],
                "xyz": [
                    1.832659395,
                    -2.558561965,
                    1.86726181
                ],
                "label": "Ca",
                "properties": {}
            },
            {
                "species": [
                    {
                        "element": "Ca",
                        "occu": 1
                    }
                ],
                "abc": [
                    0.0,
                    0.0,
                    0.5
                ],
                "xyz": [
                    1.832659395,
                    2.558561965,
                    -1.86726181
                ],
                "label": "Ca",
                "properties": {}
            },
            {
                "species": [
                    {
                        "element": "Ca",
                        "occu": 1
                    }
                ],
                "abc": [
                    0.0,
                    0.0,
                    0.0
                ],
                "xyz": [
                    0.0,
                    0.0,
                    0.0
                ],
                "label": "Ca",
                "properties": {}
            },
            {
                "species": [
                    {
                        "element": "Ca",
                        "occu": 1
                    }
                ],
                "abc": [
                    0.5,
                    0.0,
                    0.5
                ],
                "xyz": [
                    0.0,
                    5.11712393,
                    0.0
                ],
                "label": "Ca",
                "properties": {}
            },
            {
                "species": [
                    {
                        "element": "Sb",
                        "occu": 1
                    }
                ],
                "abc": [
                    0.5,
                    0.0,
                    0.0
                ],
                "xyz": [
                    -1.832659395,
                    2.558561965,
                    1.86726181
                ],
                "label": "Sb",
                "properties": {}
            },
            {
                "species": [
                    {
                        "element": "Sb",
                        "occu": 1
                    }
                ],
                "abc": [
                    0.5,
                    0.5,
                    0.5
                ],
                "xyz": [
                    1.832659395,
                    2.558561965,
                    1.86726181
                ],
                "label": "Sb",
                "properties": {}
            },
            {
                "species": [
                    {
                        "element": "Sb",
                        "occu": 1
                    }
                ],
                "abc": [
                    0.5,
                    0.5,
                    0.0
                ],
                "xyz": [
                    0.0,
                    0.0,
                    3.73452362
                ],
                "label": "Sb",
                "properties": {}
            },
            {
                "species": [
                    {
                        "element": "Sb",
                        "occu": 1
                    }
                ],
                "abc": [
                    0.0,
                    0.5,
                    0.5
                ],
                "xyz": [
                    3.66531879,
                    0.0,
                    0.0
                ],
                "label": "Sb",
                "properties": {}
            },
            {
                "species": [
                    {
                        "element": "O",
                        "occu": 1
                    }
                ],
                "abc": [
                    0.44269697,
                    0.77174873,
                    0.09288573
                ],
                "xyz": [
                    1.546535410302437,
                    -1.208490843566098,
                    4.188492199211492
                ],
                "label": "O",
                "properties": {}
            },
            {
                "species": [
                    {
                        "element": "O",
                        "occu": 1
                    }
                ],
                "abc": [
                    0.55730303,
                    0.65018776,
                    0.32905076
                ],
                "xyz": [
                    1.5465280796648573,
                    1.208490843566098,
                    3.280555040788509
                ],
                "label": "O",
                "properties": {}
            },
            {
                "species": [
                    {
                        "element": "O",
                        "occu": 1
                    }
                ],
                "abc": [
                    0.17886301,
                    0.34981224,
                    0.40711427
                ],
                "xyz": [
                    2.118787008363165,
                    1.2084857776134068,
                    0.4539723510803475
                ],
                "label": "O",
                "properties": {}
            },
            {
                "species": [
                    {
                        "element": "O",
                        "occu": 1
                    }
                ],
                "abc": [
                    0.82113699,
                    0.22825127,
                    0.17094924
                ],
                "xyz": [
                    -1.5465317083304586,
                    3.908638152386592,
                    3.2805512689196523
                ],
                "label": "O",
                "properties": {}
            },
            {
                "species": [
                    {
                        "element": "O",
                        "occu": 1
                    }
                ],
                "abc": [
                    0.55730303,
                    0.22825127,
                    0.90711427
                ],
                "xyz": [
                    2.118783379697563,
                    6.325614773566098,
                    -0.45396857921149136
                ],
                "label": "O",
                "properties": {}
            },
            {
                "species": [
                    {
                        "element": "O",
                        "occu": 1
                    }
                ],
                "abc": [
                    0.44269697,
                    0.34981224,
                    0.67094924
                ],
                "xyz": [
                    2.118790710335143,
                    3.908633086433902,
                    0.45396857921149136
                ],
                "label": "O",
                "properties": {}
            },
            {
                "species": [
                    {
                        "element": "O",
                        "occu": 1
                    }
                ],
                "abc": [
                    0.82113699,
                    0.65018776,
                    0.59288573
                ],
                "xyz": [
                    1.5465317816368356,
                    3.9086381523865925,
                    3.2805512689196523
                ],
                "label": "O",
                "properties": {}
            },
            {
                "species": [
                    {
                        "element": "O",
                        "occu": 1
                    }
                ],
                "abc": [
                    0.17886301,
                    0.77174873,
                    0.82905076
                ],
                "xyz": [
                    5.21185049833046,
                    1.208485777613407,
                    0.4539723510803473
                ],
                "label": "O",
                "properties": {}
            },
            {
                "species": [
                    {
                        "element": "O",
                        "occu": 1
                    }
                ],
                "abc": [
                    0.59991252,
                    0.84991252,
                    0.75
                ],
                "xyz": [
                    3.6653187899999997,
                    2.5585619649999995,
                    2.613513141747445
                ],
                "label": "O",
                "properties": {}
            },
            {
                "species": [
                    {
                        "element": "O",
                        "occu": 1
                    }
                ],
                "abc": [
                    0.40008748,
                    0.15008748,
                    0.25
                ],
                "xyz": [
                    -1.1102230246251565e-16,
                    2.558561965,
                    1.1210104782525552
                ],
                "label": "O",
                "properties": {}
            },
            {
                "species": [
                    {
                        "element": "O",
                        "occu": 1
                    }
                ],
                "abc": [
                    0.17505238,
                    0.26966598,
                    0.90538639
                ],
                "xyz": [
                    3.6653187533468126,
                    4.148824845501864,
                    -1.7203756390138683
                ],
                "label": "O",
                "properties": {}
            },
            {
                "species": [
                    {
                        "element": "O",
                        "occu": 1
                    }
                ],
                "abc": [
                    0.82494762,
                    0.73033402,
                    0.09461361
                ],
                "xyz": [
                    3.6653188151269944e-08,
                    0.9682990844981353,
                    5.454899259013869
                ],
                "label": "O",
                "properties": {}
            },
            {
                "species": [
                    {
                        "element": "O",
                        "occu": 1
                    }
                ],
                "abc": [
                    0.86427959,
                    0.26966598,
                    0.59461361
                ],
                "xyz": [
                    4.440892098500626e-16,
                    6.085423065669374,
                    2.014147943640895
                ],
                "label": "O",
                "properties": {}
            },
            {
                "species": [
                    {
                        "element": "O",
                        "occu": 1
                    }
                ],
                "abc": [
                    0.13572041,
                    0.73033402,
                    0.40538639
                ],
                "xyz": [
                    3.66531879,
                    -0.9682991356693749,
                    1.7203756763591054
                ],
                "label": "O",
                "properties": {}
            }
        ]
    },
    "spacegroup": {
        "source": "spglib",
        "symbol": "Imma",
        "number": 74,
        "point_group": "mmm",
        "crystal_system": "orthorhombic",
        "hall": "-I 2b 2"
    },
    "dielectric": {
        "epsilon_ionic": [
            [
                9.06506542,
                0.0,
                0.0
            ],
            [
                0.0,
                25.28363073,
                0.0
            ],
            [
                0.0,
                0.0,
                14.16750474
            ]
        ],
        "epsilon_ionic_avg": 16.172066963333332,
        "epsilon_ionic_eig": [
            9.06506542,
            25.28363073,
            14.16750474
        ],
        "epsilon_electronic": [
            [
                4.04392968,
                0.0,
                0.0
            ],
            [
                0.0,
                4.01269439,
                0.0
            ],
            [
                0.0,
                0.0,
                3.93893451
            ]
        ],
        "epsilon_electronic_avg": 3.998519526666667,
        "epsilon_electronic_eig": [
            4.04392968,
            4.01269439,
            3.93893451
        ]
    },
    "phonon": {
        "lowest_freq": -0.05880928493957054,
        "frequency": [
            -0.05880928493957054,
            -0.04393779977144062,
            -0.03104070502021613,
            2.017106775087688,
            2.375718131995501,
            2.6470021091425187,
            3.6996621499546403,
            3.8138500484733737,
            4.027531238360553,
            4.095861226854853,
            4.1337972620213295,
            4.461367573418176,
            4.5173613854789885,
            4.735517496717679,
            4.745855282832211,
            5.241071222128983,
            5.315142112294853,
            5.42241739050922,
            5.500370330728734,
            5.617459090654197,
            5.9174703606586725,
            6.0938643882346115,
            6.6943990601629695,
            6.833324387302636,
            7.017727956709787,
            7.475886191827948,
            7.836025259713937,
            7.984101111093728,
            8.22300777481584,
            8.427113947878368,
            8.826455940635533,
            8.910740821631292,
            9.282842854185427,
            9.650463523577752,
            9.884905330810923,
            10.151488054336848,
            10.35397758837191,
            10.428140775119314,
            10.677834615501487,
            11.046222452451902,
            11.42358322773778,
            11.456349487851202,
            12.141898630081783,
            12.618642760062498,
            12.98071877545786,
            13.071284061799998,
            13.206697223475093,
            13.359535032041164,
            13.413253642785858,
            13.618842210312183,
            13.671435374619092,
            14.335330260445389,
            17.402712176677305,
            17.784289821756996,
            18.36120904324426,
            18.429416446081806,
            18.571573659105706,
            18.739088145064358,
            20.34274176404259,
            21.19265641814398,
            21.247791446354647,
            22.01139547895174,
            22.924005597858354,
            23.74666241770658,
            23.925697951410648,
            24.607282121480498
        ]
    },
    "born_effective_charge": {
        "avg_abs_trace": 2.6740268181818188,
        "tensors": [
            [
                [
                    2.4548,
                    -0.0,
                    -0.32235
                ],
                [
                    -0.0,
                    2.63237,
                    0.0
                ],
                [
                    -0.50886,
                    0.0,
                    2.49578
                ]
            ],
            [
                [
                    2.4548,
                    -0.0,
                    0.32235
                ],
                [
                    -0.0,
                    2.63237,
                    0.0
                ],
                [
                    0.50886,
                    0.0,
                    2.49578
                ]
            ],
            [
                [
                    2.63379,
                    -0.0,
                    0.0
                ],
                [
                    -0.0,
                    2.18665,
                    0.07798
                ],
                [
                    0.0,
                    -0.07022,
                    2.80071
                ]
            ],
            [
                [
                    2.63379,
                    -0.0,
                    0.0
                ],
                [
                    -0.0,
                    2.18665,
                    -0.07798
                ],
                [
                    0.0,
                    0.07022,
                    2.80071
                ]
            ],
            [
                [
                    5.12299,
                    -0.0,
                    0.39135
                ],
                [
                    -0.0,
                    4.89236,
                    0.0
                ],
                [
                    0.10346,
                    0.0,
                    4.64089
                ]
            ],
            [
                [
                    5.12299,
                    -0.0,
                    -0.39135
                ],
                [
                    -0.0,
                    4.89236,
                    0.0
                ],
                [
                    -0.10346,
                    0.0,
                    4.64089
                ]
            ],
            [
                [
                    4.89667,
                    -0.0,
                    0.0
                ],
                [
                    -0.0,
                    4.9983,
                    -0.05909
                ],
                [
                    0.0,
                    -0.57072,
                    4.36614
                ]
            ],
            [
                [
                    4.89667,
                    -0.0,
                    0.0
                ],
                [
                    -0.0,
                    4.9983,
                    0.05909
                ],
                [
                    0.0,
                    0.57072,
                    4.36614
                ]
            ],
            [
                [
                    -2.08646,
                    0.46333,
                    -0.23965
                ],
                [
                    0.51914,
                    -2.26704,
                    0.56365
                ],
                [
                    -0.2453,
                    0.57794,
                    -1.93234
                ]
            ],
            [
                [
                    -2.08646,
                    -0.46333,
                    0.23965
                ],
                [
                    -0.51912,
                    -2.26709,
                    0.56365
                ],
                [
                    0.24527,
                    0.57791,
                    -1.93236
                ]
            ],
            [
                [
                    -2.08652,
                    0.46328,
                    0.23965
                ],
                [
                    0.51912,
                    -2.26709,
                    -0.56365
                ],
                [
                    0.2453,
                    -0.57794,
                    -1.93234
                ]
            ],
            [
                [
                    -2.08652,
                    -0.46328,
                    -0.23965
                ],
                [
                    -0.51914,
                    -2.26704,
                    -0.56365
                ],
                [
                    -0.24527,
                    -0.57791,
                    -1.93236
                ]
            ],
            [
                [
                    -2.08652,
                    0.46328,
                    -0.23965
                ],
                [
                    0.51912,
                    -2.26709,
                    0.56365
                ],
                [
                    -0.24527,
                    0.57791,
                    -1.93236
                ]
            ],
            [
                [
                    -2.08652,
                    -0.46328,
                    0.23965
                ],
                [
                    -0.51914,
                    -2.26704,
                    0.56365
                ],
                [
                    0.2453,
                    0.57794,
                    -1.93234
                ]
            ],
            [
                [
                    -2.08646,
                    0.46333,
                    0.23965
                ],
                [
                    0.51914,
                    -2.26704,
                    -0.56365
                ],
                [
                    0.24527,
                    -0.57791,
                    -1.93236
                ]
            ],
            [
                [
                    -2.08646,
                    -0.46333,
                    -0.23965
                ],
                [
                    -0.51912,
                    -2.26709,
                    -0.56365
                ],
                [
                    -0.2453,
                    -0.57794,
                    -1.93234
                ]
            ],
            [
                [
                    -3.20703,
                    -0.0,
                    -2e-05
                ],
                [
                    0.0,
                    -1.64195,
                    -3e-05
                ],
                [
                    0.0,
                    0.0,
                    -1.60723
                ]
            ],
            [
                [
                    -3.20703,
                    0.0,
                    2e-05
                ],
                [
                    0.0,
                    -1.64195,
                    3e-05
                ],
                [
                    0.0,
                    0.0,
                    -1.60718
                ]
            ],
            [
                [
                    -1.77763,
                    -2e-05,
                    2e-05
                ],
                [
                    0.0,
                    -1.99974,
                    -0.18648
                ],
                [
                    -0.0,
                    -0.1691,
                    -2.48344
                ]
            ],
            [
                [
                    -1.77763,
                    2e-05,
                    -2e-05
                ],
                [
                    -0.0,
                    -1.99972,
                    -0.18645
                ],
                [
                    -0.0,
                    -0.16911,
                    -2.48347
                ]
            ],
            [
                [
                    -1.77763,
                    2e-05,
                    2e-05
                ],
                [
                    -0.0,
                    -1.99972,
                    0.18645
                ],
                [
                    -0.0,
                    0.1691,
                    -2.48344
                ]
            ],
            [
                [
                    -1.77763,
                    -2e-05,
                    -2e-05
                ],
                [
                    -0.0,
                    -1.99974,
                    0.18648
                ],
                [
                    0.0,
                    0.16911,
                    -2.48347
                ]
            ]
        ]
    },
    "band_gap": 1.9043999999999999,
    "is_direct": false,
    "formula": "Ca2Sb2O7"
}