{
    "mp_id": "mp-1213173",
    "nelements": 4,
    "nsites": 24,
    "elements": [
        "Cs",
        "La",
        "O",
        "W"
    ],
    "structure": {
        "@module": "pymatgen.core.structure",
        "@class": "Structure",
        "charge": null,
        "lattice": {
            "matrix": [
                [
                    5.43131873,
                    -5.40838137,
                    0.00045338
                ],
                [
                    5.43131873,
                    5.40838137,
                    0.00045338
                ],
                [
                    -4.83650763,
                    0.0,
                    5.81650981
                ]
            ],
            "a": 7.664842620417285,
            "b": 7.664842620417285,
            "c": 7.564627712245623,
            "alpha": 116.93663023099512,
            "beta": 116.93663023099512,
            "gamma": 89.75751856058358,
            "volume": 341.7395174793244
        },
        "sites": [
            {
                "species": [
                    {
                        "element": "Cs",
                        "occu": 1
                    }
                ],
                "abc": [
                    0.19488643,
                    0.80511357,
                    0.25
                ],
                "xyz": [
                    4.222191822499999,
                    3.3003410954443817,
                    1.4545808325
                ],
                "label": "Cs",
                "properties": {}
            },
            {
                "species": [
                    {
                        "element": "Cs",
                        "occu": 1
                    }
                ],
                "abc": [
                    0.80511357,
                    0.19488643,
                    0.75
                ],
                "xyz": [
                    1.8039380074999993,
                    -3.3003410954443817,
                    4.3628357375
                ],
                "label": "Cs",
                "properties": {}
            },
            {
                "species": [
                    {
                        "element": "La",
                        "occu": 1
                    }
                ],
                "abc": [
                    0.7758857,
                    0.2241143,
                    0.25
                ],
                "xyz": [
                    4.2221918225,
                    -2.9841901602588186,
                    1.4545808325
                ],
                "label": "La",
                "properties": {}
            },
            {
                "species": [
                    {
                        "element": "La",
                        "occu": 1
                    }
                ],
                "abc": [
                    0.2241143,
                    0.7758857,
                    0.75
                ],
                "xyz": [
                    1.8039380075000002,
                    2.9841901602588186,
                    4.3628357375
                ],
                "label": "La",
                "properties": {}
            },
            {
                "species": [
                    {
                        "element": "W",
                        "occu": 1
                    }
                ],
                "abc": [
                    0.31779174,
                    0.30902195,
                    0.27970795
                ],
                "xyz": [
                    2.051615300370755,
                    -0.04743036885481233,
                    1.6272082199007616
                ],
                "label": "W",
                "properties": {}
            },
            {
                "species": [
                    {
                        "element": "W",
                        "occu": 1
                    }
                ],
                "abc": [
                    0.68220826,
                    0.69097805,
                    0.72029205
                ],
                "xyz": [
                    3.9745145296292455,
                    0.04743036885481233,
                    4.190208350099239
                ],
                "label": "W",
                "properties": {}
            },
            {
                "species": [
                    {
                        "element": "W",
                        "occu": 1
                    }
                ],
                "abc": [
                    0.69097805,
                    0.68220826,
                    0.22029205
                ],
                "xyz": [
                    6.392768344629245,
                    -0.04743036885481233,
                    1.2819534450992383
                ],
                "label": "W",
                "properties": {}
            },
            {
                "species": [
                    {
                        "element": "W",
                        "occu": 1
                    }
                ],
                "abc": [
                    0.30902195,
                    0.31779174,
                    0.77970795
                ],
                "xyz": [
                    -0.366638514629245,
                    0.04743036885481233,
                    4.535463124900763
                ],
                "label": "W",
                "properties": {}
            },
            {
                "species": [
                    {
                        "element": "O",
                        "occu": 1
                    }
                ],
                "abc": [
                    0.25797556,
                    0.38105005,
                    0.07339994
                ],
                "xyz": [
                    3.115752394691133,
                    0.6656337788382511,
                    0.4272211924944732
                ],
                "label": "O",
                "properties": {}
            },
            {
                "species": [
                    {
                        "element": "O",
                        "occu": 1
                    }
                ],
                "abc": [
                    0.74202444,
                    0.61894995,
                    0.92660006
                ],
                "xyz": [
                    2.9103774353088676,
                    -0.6656337788382514,
                    5.390195377505527
                ],
                "label": "O",
                "properties": {}
            },
            {
                "species": [
                    {
                        "element": "O",
                        "occu": 1
                    }
                ],
                "abc": [
                    0.61894995,
                    0.74202444,
                    0.42660006
                ],
                "xyz": [
                    5.328631250308867,
                    0.6656337788382514,
                    2.481940472505527
                ],
                "label": "O",
                "properties": {}
            },
            {
                "species": [
                    {
                        "element": "O",
                        "occu": 1
                    }
                ],
                "abc": [
                    0.38105005,
                    0.25797556,
                    0.57339994
                ],
                "xyz": [
                    0.6974985796911328,
                    -0.6656337788382511,
                    3.3354760974944737
                ],
                "label": "O",
                "properties": {}
            },
            {
                "species": [
                    {
                        "element": "O",
                        "occu": 1
                    }
                ],
                "abc": [
                    0.92346578,
                    0.61973605,
                    0.35968164
                ],
                "xyz": [
                    6.642018007218362,
                    -1.6426862132471305,
                    2.092791444382574
                ],
                "label": "O",
                "properties": {}
            },
            {
                "species": [
                    {
                        "element": "O",
                        "occu": 1
                    }
                ],
                "abc": [
                    0.07653422,
                    0.38026395,
                    0.64031836
                ],
                "xyz": [
                    -0.6158881772183622,
                    1.6426862132471303,
                    3.7246251256174263
                ],
                "label": "O",
                "properties": {}
            },
            {
                "species": [
                    {
                        "element": "O",
                        "occu": 1
                    }
                ],
                "abc": [
                    0.38026395,
                    0.07653422,
                    0.14031836
                ],
                "xyz": [
                    1.8023656377816373,
                    -1.6426862132471303,
                    0.8163702206174263
                ],
                "label": "O",
                "properties": {}
            },
            {
                "species": [
                    {
                        "element": "O",
                        "occu": 1
                    }
                ],
                "abc": [
                    0.61973605,
                    0.92346578,
                    0.85968164
                ],
                "xyz": [
                    4.223764192218362,
                    1.6426862132471305,
                    5.001046349382574
                ],
                "label": "O",
                "properties": {}
            },
            {
                "species": [
                    {
                        "element": "O",
                        "occu": 1
                    }
                ],
                "abc": [
                    0.62820073,
                    0.41638992,
                    0.47297388
                ],
                "xyz": [
                    3.3859629831171705,
                    -1.1455536387686096,
                    2.75153080940266
                ],
                "label": "O",
                "properties": {}
            },
            {
                "species": [
                    {
                        "element": "O",
                        "occu": 1
                    }
                ],
                "abc": [
                    0.37179927,
                    0.58361008,
                    0.52702612
                ],
                "xyz": [
                    2.6401668468828294,
                    1.14555363876861,
                    3.0658857605973404
                ],
                "label": "O",
                "properties": {}
            },
            {
                "species": [
                    {
                        "element": "O",
                        "occu": 1
                    }
                ],
                "abc": [
                    0.58361008,
                    0.37179927,
                    0.02702612
                ],
                "xyz": [
                    5.058420661882829,
                    -1.14555363876861,
                    0.15763085559734022
                ],
                "label": "O",
                "properties": {}
            },
            {
                "species": [
                    {
                        "element": "O",
                        "occu": 1
                    }
                ],
                "abc": [
                    0.41638992,
                    0.62820073,
                    0.97297388
                ],
                "xyz": [
                    0.967709168117171,
                    1.1455536387686096,
                    5.65978571440266
                ],
                "label": "O",
                "properties": {}
            },
            {
                "species": [
                    {
                        "element": "O",
                        "occu": 1
                    }
                ],
                "abc": [
                    0.06769741,
                    0.21847309,
                    0.20244502
                ],
                "xyz": [
                    0.5751563127379623,
                    0.8154523787610817,
                    1.1776531887969361
                ],
                "label": "O",
                "properties": {}
            },
            {
                "species": [
                    {
                        "element": "O",
                        "occu": 1
                    }
                ],
                "abc": [
                    0.93230259,
                    0.78152691,
                    0.79755498
                ],
                "xyz": [
                    5.450973517262037,
                    -0.8154523787610826,
                    4.639763381203064
                ],
                "label": "O",
                "properties": {}
            },
            {
                "species": [
                    {
                        "element": "O",
                        "occu": 1
                    }
                ],
                "abc": [
                    0.78152691,
                    0.93230259,
                    0.29755498
                ],
                "xyz": [
                    7.869227332262037,
                    0.8154523787610826,
                    1.731508476203064
                ],
                "label": "O",
                "properties": {}
            },
            {
                "species": [
                    {
                        "element": "O",
                        "occu": 1
                    }
                ],
                "abc": [
                    0.21847309,
                    0.06769741,
                    0.70244502
                ],
                "xyz": [
                    -1.8430975022620375,
                    -0.8154523787610817,
                    4.085908093796936
                ],
                "label": "O",
                "properties": {}
            }
        ]
    },
    "spacegroup": {
        "source": "spglib",
        "symbol": "C2/c",
        "number": 15,
        "point_group": "2/m",
        "crystal_system": "monoclinic",
        "hall": "-C 2yc"
    },
    "dielectric": {
        "epsilon_ionic": [
            [
                11.03844349,
                -2e-08,
                -0.44683987
            ],
            [
                -2e-08,
                9.76152376,
                2e-08
            ],
            [
                -0.44683987,
                2e-08,
                9.35704299
            ]
        ],
        "epsilon_ionic_avg": 10.05233674666667,
        "epsilon_ionic_eig": [
            11.14981612574545,
            9.245670354254552,
            9.761523760000006
        ],
        "epsilon_electronic": [
            [
                4.5109725,
                0.0,
                -0.03957835
            ],
            [
                0.0,
                4.34521711,
                0.0
            ],
            [
                -0.03965814,
                0.0,
                4.50502313
            ]
        ],
        "epsilon_electronic_avg": 4.453737579999999,
        "epsilon_electronic_eig": [
            4.547727558217371,
            4.468268071782629,
            4.34521711
        ]
    },
    "phonon": {
        "lowest_freq": -0.2099726041607637,
        "frequency": [
            -0.2099726041607637,
            -0.102721449931193,
            -0.049538032465345966,
            1.688823264387091,
            1.8911979490283921,
            2.0563710058234888,
            2.1986401203368198,
            2.2656170469475905,
            2.520546251924596,
            2.5824694918108415,
            2.712540946988596,
            2.9851391863047483,
            3.0642022109908194,
            3.2540121991671516,
            3.3953496386759223,
            3.4957548823622013,
            3.566862168659314,
            3.5755573851092324,
            3.7816039563147807,
            3.900213443596152,
            4.350538664288008,
            4.417332932889211,
            4.4225846513223415,
            5.148788865028854,
            5.185195316799053,
            5.195237436095627,
            5.6774350124549,
            5.809710719349587,
            5.8201400561282535,
            6.421381203818725,
            6.77915267699224,
            7.115357257197881,
            7.520671843494103,
            7.718421499996727,
            7.7750640025613285,
            8.211726924331222,
            8.642394172644885,
            8.667491774797325,
            8.772478932409172,
            9.26904596779318,
            9.466242541904057,
            9.478142086452186,
            9.512601528839387,
            10.342141727629992,
            10.581703240604618,
            10.818024500234593,
            11.197195432163344,
            11.238876403436826,
            11.736873982967305,
            12.45181912275761,
            12.630166377737732,
            12.808075568163053,
            13.020093255090119,
            13.867501306979333,
            15.952071140055343,
            15.961152624708328,
            18.2878112878284,
            18.60540111365109,
            19.471559615778375,
            19.70421650754048,
            22.12554191462845,
            22.33795717568567,
            22.528632963566597,
            22.809079285326842,
            22.941935668309807,
            23.37444687561657,
            23.866821130536223,
            24.671058222138054,
            25.339316383423597,
            26.41630977795724,
            27.647132238541854,
            28.17052010064858
        ]
    },
    "born_effective_charge": {
        "avg_abs_trace": 3.109125972222222,
        "tensors": [
            [
                [
                    1.35134,
                    1e-05,
                    0.08589
                ],
                [
                    -0.0,
                    1.64382,
                    0.0
                ],
                [
                    0.10762,
                    8e-05,
                    1.31357
                ]
            ],
            [
                [
                    1.35134,
                    -1e-05,
                    0.08589
                ],
                [
                    -0.0,
                    1.64393,
                    0.0
                ],
                [
                    0.10762,
                    -8e-05,
                    1.31357
                ]
            ],
            [
                [
                    4.7079,
                    0.00026,
                    -0.11507
                ],
                [
                    0.0,
                    5.8251,
                    0.0
                ],
                [
                    0.00261,
                    4e-05,
                    4.5792
                ]
            ],
            [
                [
                    4.7079,
                    -0.00026,
                    -0.11507
                ],
                [
                    -0.0,
                    5.8252,
                    0.0
                ],
                [
                    0.00261,
                    -4e-05,
                    4.5792
                ]
            ],
            [
                [
                    6.57804,
                    0.27753,
                    -0.1722
                ],
                [
                    -0.40876,
                    5.3262,
                    0.4841
                ],
                [
                    -0.21298,
                    0.30325,
                    6.36752
                ]
            ],
            [
                [
                    6.57801,
                    0.27786,
                    -0.17192
                ],
                [
                    -0.40904,
                    5.32613,
                    0.48379
                ],
                [
                    -0.21313,
                    0.30289,
                    6.36732
                ]
            ],
            [
                [
                    6.57801,
                    -0.27786,
                    -0.17192
                ],
                [
                    0.40876,
                    5.3262,
                    -0.4841
                ],
                [
                    -0.21313,
                    -0.30289,
                    6.36732
                ]
            ],
            [
                [
                    6.57804,
                    -0.27753,
                    -0.1722
                ],
                [
                    0.40904,
                    5.32613,
                    -0.48379
                ],
                [
                    -0.21298,
                    -0.30325,
                    6.36752
                ]
            ],
            [
                [
                    -2.45472,
                    -0.58796,
                    1.72946
                ],
                [
                    -0.30401,
                    -1.15937,
                    0.31185
                ],
                [
                    1.60607,
                    0.60047,
                    -2.82418
                ]
            ],
            [
                [
                    -2.45487,
                    -0.58808,
                    1.72927
                ],
                [
                    -0.30398,
                    -1.15935,
                    0.31196
                ],
                [
                    1.60624,
                    0.60082,
                    -2.82397
                ]
            ],
            [
                [
                    -2.45487,
                    0.58808,
                    1.72927
                ],
                [
                    0.30401,
                    -1.15937,
                    -0.31185
                ],
                [
                    1.60624,
                    -0.60082,
                    -2.82397
                ]
            ],
            [
                [
                    -2.45472,
                    0.58796,
                    1.72946
                ],
                [
                    0.30398,
                    -1.15935,
                    -0.31196
                ],
                [
                    1.60607,
                    -0.60047,
                    -2.82418
                ]
            ],
            [
                [
                    -1.45008,
                    0.43936,
                    -0.38674
                ],
                [
                    0.22392,
                    -3.16755,
                    1.38044
                ],
                [
                    -0.38081,
                    1.45826,
                    -2.29269
                ]
            ],
            [
                [
                    -1.4499,
                    0.43909,
                    -0.38643
                ],
                [
                    0.22401,
                    -3.16787,
                    1.3804
                ],
                [
                    -0.38083,
                    1.4583,
                    -2.29279
                ]
            ],
            [
                [
                    -1.4499,
                    -0.43909,
                    -0.38643
                ],
                [
                    -0.22392,
                    -3.16755,
                    -1.38044
                ],
                [
                    -0.38083,
                    -1.4583,
                    -2.29279
                ]
            ],
            [
                [
                    -1.45008,
                    -0.43936,
                    -0.38674
                ],
                [
                    -0.22401,
                    -3.16787,
                    -1.3804
                ],
                [
                    -0.38081,
                    -1.45826,
                    -2.29269
                ]
            ],
            [
                [
                    -2.0627,
                    0.34487,
                    -0.79088
                ],
                [
                    0.44199,
                    -2.70482,
                    -0.8232
                ],
                [
                    -0.61298,
                    -0.84711,
                    -2.93567
                ]
            ],
            [
                [
                    -2.06234,
                    0.34502,
                    -0.79076
                ],
                [
                    0.44219,
                    -2.70515,
                    -0.82297
                ],
                [
                    -0.61327,
                    -0.84728,
                    -2.9359
                ]
            ],
            [
                [
                    -2.06234,
                    -0.34502,
                    -0.79076
                ],
                [
                    -0.44199,
                    -2.70482,
                    0.8232
                ],
                [
                    -0.61327,
                    0.84728,
                    -2.9359
                ]
            ],
            [
                [
                    -2.0627,
                    -0.34487,
                    -0.79088
                ],
                [
                    -0.44219,
                    -2.70515,
                    0.82297
                ],
                [
                    -0.61298,
                    0.84711,
                    -2.93567
                ]
            ],
            [
                [
                    -3.64033,
                    1.75687,
                    -0.36524
                ],
                [
                    1.64767,
                    -2.02869,
                    0.32508
                ],
                [
                    -0.45433,
                    0.46771,
                    -1.2613
                ]
            ],
            [
                [
                    -3.64035,
                    1.75684,
                    -0.3654
                ],
                [
                    1.64813,
                    -2.02856,
                    0.32556
                ],
                [
                    -0.45422,
                    0.46776,
                    -1.26113
                ]
            ],
            [
                [
                    -3.64035,
                    -1.75684,
                    -0.3654
                ],
                [
                    -1.64767,
                    -2.02869,
                    -0.32508
                ],
                [
                    -0.45422,
                    -0.46776,
                    -1.26113
                ]
            ],
            [
                [
                    -3.64033,
                    -1.75687,
                    -0.36524
                ],
                [
                    -1.64813,
                    -2.02856,
                    -0.32556
                ],
                [
                    -0.45433,
                    -0.46771,
                    -1.2613
                ]
            ]
        ]
    },
    "band_gap": 3.9653,
    "is_direct": false,
    "formula": "CsLa(WO4)2"
}