{
    "mp_id": "mp-1096933",
    "nelements": 3,
    "nsites": 8,
    "elements": [
        "Ag",
        "Cs",
        "O"
    ],
    "structure": {
        "@module": "pymatgen.core.structure",
        "@class": "Structure",
        "charge": null,
        "lattice": {
            "matrix": [
                [
                    2.53090151,
                    -6.24414831,
                    0.0
                ],
                [
                    2.53090151,
                    6.24414831,
                    0.0
                ],
                [
                    0.0,
                    0.0,
                    5.88563738
                ]
            ],
            "a": 6.73757007908609,
            "b": 6.73757007908609,
            "c": 5.88563738,
            "alpha": 90.0,
            "beta": 90.0,
            "gamma": 135.87223889356724,
            "volume": 186.02527347422838
        },
        "sites": [
            {
                "species": [
                    {
                        "element": "Cs",
                        "occu": 1
                    }
                ],
                "abc": [
                    0.69505757,
                    0.30494243,
                    0.75
                ],
                "xyz": [
                    2.53090151,
                    -2.4359367921364132,
                    4.414228035000001
                ],
                "label": "Cs",
                "properties": {}
            },
            {
                "species": [
                    {
                        "element": "Cs",
                        "occu": 1
                    }
                ],
                "abc": [
                    0.30494243,
                    0.69505757,
                    0.25
                ],
                "xyz": [
                    2.53090151,
                    2.4359367921364132,
                    1.471409345
                ],
                "label": "Cs",
                "properties": {}
            },
            {
                "species": [
                    {
                        "element": "Ag",
                        "occu": 1
                    }
                ],
                "abc": [
                    0.00237897,
                    0.99762103,
                    0.25
                ],
                "xyz": [
                    2.53090151,
                    6.214439026989918,
                    1.471409345
                ],
                "label": "Ag",
                "properties": {}
            },
            {
                "species": [
                    {
                        "element": "Ag",
                        "occu": 1
                    }
                ],
                "abc": [
                    0.99762103,
                    0.00237897,
                    0.75
                ],
                "xyz": [
                    2.53090151,
                    -6.214439026989918,
                    4.414228035000001
                ],
                "label": "Ag",
                "properties": {}
            },
            {
                "species": [
                    {
                        "element": "O",
                        "occu": 1
                    }
                ],
                "abc": [
                    0.10568431,
                    0.89431569,
                    0.50489913
                ],
                "xyz": [
                    2.53090151,
                    4.924331298639968,
                    2.9716531926574796
                ],
                "label": "O",
                "properties": {}
            },
            {
                "species": [
                    {
                        "element": "O",
                        "occu": 1
                    }
                ],
                "abc": [
                    0.89431569,
                    0.10568431,
                    0.00489913
                ],
                "xyz": [
                    2.53090151,
                    -4.924331298639968,
                    0.028834502657479402
                ],
                "label": "O",
                "properties": {}
            },
            {
                "species": [
                    {
                        "element": "O",
                        "occu": 1
                    }
                ],
                "abc": [
                    0.89431569,
                    0.10568431,
                    0.49510087
                ],
                "xyz": [
                    2.53090151,
                    -4.924331298639968,
                    2.9139841873425207
                ],
                "label": "O",
                "properties": {}
            },
            {
                "species": [
                    {
                        "element": "O",
                        "occu": 1
                    }
                ],
                "abc": [
                    0.10568431,
                    0.89431569,
                    0.99510087
                ],
                "xyz": [
                    2.53090151,
                    4.924331298639968,
                    5.856802877342521
                ],
                "label": "O",
                "properties": {}
            }
        ]
    },
    "spacegroup": {
        "source": "spglib",
        "symbol": "Cmcm",
        "number": 63,
        "point_group": "mmm",
        "crystal_system": "orthorhombic",
        "hall": "-C 2c 2"
    },
    "dielectric": {
        "epsilon_ionic": [
            [
                3.5337101,
                -0.0,
                2e-08
            ],
            [
                -0.0,
                2.12057804,
                -0.0
            ],
            [
                2e-08,
                -0.0,
                4.68881586
            ]
        ],
        "epsilon_ionic_avg": 3.447701333333333,
        "epsilon_ionic_eig": [
            3.5337100999999995,
            4.68881586,
            2.12057804
        ],
        "epsilon_electronic": [
            [
                2.54989502,
                0.0,
                0.0
            ],
            [
                0.0,
                3.51763227,
                -0.0
            ],
            [
                0.0,
                0.0,
                5.91187457
            ]
        ],
        "epsilon_electronic_avg": 3.993133953333333,
        "epsilon_electronic_eig": [
            2.54989502,
            3.51763227,
            5.91187457
        ]
    },
    "phonon": {
        "lowest_freq": -0.27993238862963105,
        "frequency": [
            -0.27993238862963105,
            -0.024465368268907776,
            -0.016080964465902615,
            1.299095352238865,
            1.6246783927540982,
            1.9565456321125276,
            2.08810644561968,
            2.0960603247937697,
            3.0114466569081073,
            3.0564395390080494,
            3.156947359894649,
            3.9361616224299967,
            5.543994820798954,
            6.86746422849278,
            8.081938263004385,
            8.211848978741893,
            12.899322167616164,
            14.17633826618169,
            15.488442200302973,
            15.860426981694083,
            15.906955845304916,
            15.998777862070067,
            16.57296756374159,
            17.641759680742183
        ]
    },
    "born_effective_charge": {
        "avg_abs_trace": 1.7090658333333333,
        "tensors": [
            [
                [
                    1.35701,
                    -0.0,
                    -0.0
                ],
                [
                    0.0,
                    1.55917,
                    0.0
                ],
                [
                    -0.0,
                    -0.00051,
                    1.07653
                ]
            ],
            [
                [
                    1.35701,
                    0.0,
                    -0.0
                ],
                [
                    0.0,
                    1.55919,
                    0.0
                ],
                [
                    0.0,
                    0.00051,
                    1.07653
                ]
            ],
            [
                [
                    0.19814,
                    4e-05,
                    -0.0
                ],
                [
                    0.0,
                    1.08904,
                    0.0
                ],
                [
                    -0.0,
                    0.0004,
                    4.97469
                ]
            ],
            [
                [
                    0.19814,
                    -4e-05,
                    -0.0
                ],
                [
                    0.0,
                    1.08864,
                    0.0
                ],
                [
                    0.0,
                    -0.0004,
                    4.97469
                ]
            ],
            [
                [
                    -0.77758,
                    -2e-05,
                    0.00012
                ],
                [
                    0.0,
                    -1.32398,
                    0.04874
                ],
                [
                    -0.0,
                    -0.04573,
                    -3.02532
                ]
            ],
            [
                [
                    -0.77758,
                    2e-05,
                    0.00012
                ],
                [
                    0.0,
                    -1.32404,
                    -0.04879
                ],
                [
                    -0.0,
                    0.04573,
                    -3.02532
                ]
            ],
            [
                [
                    -0.77758,
                    2e-05,
                    -0.00012
                ],
                [
                    0.0,
                    -1.32404,
                    0.04879
                ],
                [
                    0.0,
                    -0.0448,
                    -3.0259
                ]
            ],
            [
                [
                    -0.77758,
                    -2e-05,
                    -0.00012
                ],
                [
                    0.0,
                    -1.32398,
                    -0.04874
                ],
                [
                    0.0,
                    0.0448,
                    -3.0259
                ]
            ]
        ]
    },
    "band_gap": 1.4058,
    "is_direct": false,
    "formula": "CsAgO2"
}