{
    "mp_id": "mp-1182298",
    "nelements": 5,
    "nsites": 22,
    "elements": [
        "B",
        "Ba",
        "Na",
        "O",
        "Sc"
    ],
    "structure": {
        "@module": "pymatgen.core.structure",
        "@class": "Structure",
        "charge": null,
        "lattice": {
            "matrix": [
                [
                    2.61339586,
                    1.50884446,
                    11.46419975
                ],
                [
                    -2.61339569,
                    1.50884475,
                    11.46419975
                ],
                [
                    -1.7e-07,
                    -3.01769021,
                    11.46419975
                ]
            ],
            "a": 11.854717433723923,
            "b": 11.854717433157704,
            "c": 11.854717631029004,
            "alpha": 25.47116326916822,
            "beta": 25.471163287639623,
            "gamma": 25.471161123712378,
            "volume": 271.23441289574845
        },
        "sites": [
            {
                "species": [
                    {
                        "element": "Ba",
                        "occu": 1
                    }
                ],
                "abc": [
                    0.10311835,
                    0.10311835,
                    0.10311835
                ],
                "xyz": [
                    2.2657373641611435e-17,
                    -1.0311834997001057e-07,
                    3.5465080868712375
                ],
                "label": "Ba",
                "properties": {}
            },
            {
                "species": [
                    {
                        "element": "Ba",
                        "occu": 1
                    }
                ],
                "abc": [
                    0.89688165,
                    0.89688165,
                    0.89688165
                ],
                "xyz": [
                    -2.231601473165652e-16,
                    -8.968816498367005e-07,
                    30.84609116312876
                ],
                "label": "Ba",
                "properties": {}
            },
            {
                "species": [
                    {
                        "element": "Na",
                        "occu": 1
                    }
                ],
                "abc": [
                    0.37613763,
                    0.37613763,
                    0.37613763
                ],
                "xyz": [
                    -7.824044657276952e-17,
                    -3.761376299316055e-07,
                    12.936350771434778
                ],
                "label": "Na",
                "properties": {}
            },
            {
                "species": [
                    {
                        "element": "Na",
                        "occu": 1
                    }
                ],
                "abc": [
                    0.62386237,
                    0.62386237,
                    0.62386237
                ],
                "xyz": [
                    -6.675118579709379e-17,
                    -6.238623702081725e-07,
                    21.45624847856522
                ],
                "label": "Na",
                "properties": {}
            },
            {
                "species": [
                    {
                        "element": "Sc",
                        "occu": 1
                    }
                ],
                "abc": [
                    0.0,
                    0.0,
                    0.0
                ],
                "xyz": [
                    0.0,
                    0.0,
                    0.0
                ],
                "label": "Sc",
                "properties": {}
            },
            {
                "species": [
                    {
                        "element": "Sc",
                        "occu": 1
                    }
                ],
                "abc": [
                    0.5,
                    0.5,
                    0.5
                ],
                "xyz": [
                    -7.249581618493165e-17,
                    -5.00000000069889e-07,
                    17.196299625
                ],
                "label": "Sc",
                "properties": {}
            },
            {
                "species": [
                    {
                        "element": "B",
                        "occu": 1
                    }
                ],
                "abc": [
                    0.70397939,
                    0.70397939,
                    0.70397939
                ],
                "xyz": [
                    -3.1460709485156037e-17,
                    -7.039793903373948e-07,
                    24.211681040529456
                ],
                "label": "B",
                "properties": {}
            },
            {
                "species": [
                    {
                        "element": "B",
                        "occu": 1
                    }
                ],
                "abc": [
                    0.29602061,
                    0.29602061,
                    0.29602061
                ],
                "xyz": [
                    -2.508607187301818e-18,
                    -2.960206100244278e-07,
                    10.180918209470544
                ],
                "label": "B",
                "properties": {}
            },
            {
                "species": [
                    {
                        "element": "B",
                        "occu": 1
                    }
                ],
                "abc": [
                    0.79714034,
                    0.79714034,
                    0.79714034
                ],
                "xyz": [
                    -3.3120581718375165e-16,
                    -7.971403399587018e-07,
                    27.415728259628747
                ],
                "label": "B",
                "properties": {}
            },
            {
                "species": [
                    {
                        "element": "B",
                        "occu": 1
                    }
                ],
                "abc": [
                    0.20285966,
                    0.20285966,
                    0.20285966
                ],
                "xyz": [
                    7.519186911648289e-17,
                    -2.0285965995903155e-07,
                    6.976870990371255
                ],
                "label": "B",
                "properties": {}
            },
            {
                "species": [
                    {
                        "element": "O",
                        "occu": 1
                    }
                ],
                "abc": [
                    0.4024732,
                    0.80210639,
                    0.90594112
                ],
                "xyz": [
                    -1.0443997419164974,
                    -0.916326175049011,
                    24.195430995951824
                ],
                "label": "O",
                "properties": {}
            },
            {
                "species": [
                    {
                        "element": "O",
                        "occu": 1
                    }
                ],
                "abc": [
                    0.90594112,
                    0.4024732,
                    0.80210639
                ],
                "xyz": [
                    1.3157609098331688,
                    -0.4463147856475467,
                    24.195430995951824
                ],
                "label": "O",
                "properties": {}
            },
            {
                "species": [
                    {
                        "element": "O",
                        "occu": 1
                    }
                ],
                "abc": [
                    0.80210639,
                    0.90594112,
                    0.4024732
                ],
                "xyz": [
                    -0.27136116791667186,
                    1.3626388501758473,
                    24.195430995951824
                ],
                "label": "O",
                "properties": {}
            },
            {
                "species": [
                    {
                        "element": "O",
                        "occu": 1
                    }
                ],
                "abc": [
                    0.5975268,
                    0.19789361,
                    0.09405888
                ],
                "xyz": [
                    1.0443997419164976,
                    0.9163251750490106,
                    10.197168254048178
                ],
                "label": "O",
                "properties": {}
            },
            {
                "species": [
                    {
                        "element": "O",
                        "occu": 1
                    }
                ],
                "abc": [
                    0.09405888,
                    0.5975268,
                    0.19789361
                ],
                "xyz": [
                    -1.315760909833169,
                    0.44631378564754665,
                    10.19716825404818
                ],
                "label": "O",
                "properties": {}
            },
            {
                "species": [
                    {
                        "element": "O",
                        "occu": 1
                    }
                ],
                "abc": [
                    0.19789361,
                    0.09405888,
                    0.5975268
                ],
                "xyz": [
                    0.2713611679166714,
                    -1.3626398501758474,
                    10.19716825404818
                ],
                "label": "O",
                "properties": {}
            },
            {
                "species": [
                    {
                        "element": "O",
                        "occu": 1
                    }
                ],
                "abc": [
                    0.10085765,
                    0.64454023,
                    0.64420036
                ],
                "xyz": [
                    -1.4208578036683408,
                    -0.8193074710000641,
                    15.930631795608441
                ],
                "label": "O",
                "properties": {}
            },
            {
                "species": [
                    {
                        "element": "O",
                        "occu": 1
                    }
                ],
                "abc": [
                    0.64420036,
                    0.10085765,
                    0.64454023
                ],
                "xyz": [
                    1.4199694964491418,
                    -0.8208460620063054,
                    15.930631795608441
                ],
                "label": "O",
                "properties": {}
            },
            {
                "species": [
                    {
                        "element": "O",
                        "occu": 1
                    }
                ],
                "abc": [
                    0.64454023,
                    0.64420036,
                    0.10085765
                ],
                "xyz": [
                    0.0008883072191988045,
                    1.6401521434081294,
                    15.93063179560844
                ],
                "label": "O",
                "properties": {}
            },
            {
                "species": [
                    {
                        "element": "O",
                        "occu": 1
                    }
                ],
                "abc": [
                    0.89914235,
                    0.35545977,
                    0.35579964
                ],
                "xyz": [
                    1.4208578036683408,
                    0.8193064710000642,
                    18.461967454391562
                ],
                "label": "O",
                "properties": {}
            },
            {
                "species": [
                    {
                        "element": "O",
                        "occu": 1
                    }
                ],
                "abc": [
                    0.35579964,
                    0.89914235,
                    0.35545977
                ],
                "xyz": [
                    -1.419969496449142,
                    0.820845062006305,
                    18.46196745439156
                ],
                "label": "O",
                "properties": {}
            },
            {
                "species": [
                    {
                        "element": "O",
                        "occu": 1
                    }
                ],
                "abc": [
                    0.35545977,
                    0.35579964,
                    0.89914235
                ],
                "xyz": [
                    -0.0008883072191988384,
                    -1.6401531434081291,
                    18.461967454391562
                ],
                "label": "O",
                "properties": {}
            }
        ]
    },
    "spacegroup": {
        "source": "spglib",
        "symbol": "R-3",
        "number": 148,
        "point_group": "-3",
        "crystal_system": "trigonal",
        "hall": "-R 3"
    },
    "dielectric": {
        "epsilon_ionic": [
            [
                6.95542733,
                -5.17e-06,
                7.5e-06
            ],
            [
                -5.17e-06,
                6.95538278,
                -2.11e-06
            ],
            [
                7.5e-06,
                -2.11e-06,
                9.75170642
            ]
        ],
        "epsilon_ionic_avg": 7.887505510000007,
        "epsilon_ionic_eig": [
            9.751706420021716,
            6.955427922084591,
            6.95538218789371
        ],
        "epsilon_electronic": [
            [
                3.54219694,
                -3.67e-06,
                0.0
            ],
            [
                3.67e-06,
                3.54219749,
                0.0
            ],
            [
                0.0,
                -0.0,
                3.06454254
            ]
        ],
        "epsilon_electronic_avg": 3.38297899,
        "epsilon_electronic_eig": [
            3.542197215,
            3.542197215,
            3.06454254
        ]
    },
    "phonon": {
        "lowest_freq": -0.1781706956151295,
        "frequency": [
            -0.1781706956151295,
            -0.1781706818979388,
            -0.029214639406651245,
            0.5563390303375465,
            0.5563390610885954,
            2.114496957008533,
            2.1144971188248785,
            2.3356954354826476,
            3.1252921906228806,
            3.125292347024337,
            3.349228470800965,
            3.700303604187026,
            4.157909846094234,
            4.408070843699317,
            4.408071076563208,
            4.802196894570642,
            4.802197253369104,
            4.890064186991729,
            5.374356457275886,
            5.432505862471229,
            5.69933687839544,
            5.699337285776372,
            5.935741752884326,
            5.935742144040355,
            6.137714422634248,
            6.371239481751386,
            6.371239539291242,
            6.71758310030603,
            7.236271188029192,
            7.236271289352149,
            8.948145433233513,
            8.948145706362876,
            9.539066975318432,
            9.539067628653099,
            9.721958240472212,
            9.804387864451364,
            9.80438822590196,
            10.28707134910047,
            10.641218640072855,
            10.641219317608378,
            11.202676223799257,
            13.769489313118063,
            17.087235201320983,
            17.087235344351807,
            17.30287862319816,
            17.302878764446408,
            17.648278764932627,
            17.648278972658375,
            17.70093202522503,
            17.700932163296926,
            20.952517302205315,
            21.524873133117275,
            22.10295875377044,
            22.117507537894795,
            27.9426063525209,
            28.341440469233035,
            29.254069538174964,
            29.668896722463764,
            35.236378833254356,
            35.23638126086031,
            35.35609123906272,
            35.35609369301169,
            37.073191491838045,
            37.07319399693791,
            37.17937367345205,
            37.17937620426518
        ]
    },
    "born_effective_charge": {
        "avg_abs_trace": 2.24727106060606,
        "tensors": [
            [
                [
                    2.65778,
                    0.0243,
                    -0.0
                ],
                [
                    -0.0243,
                    2.65778,
                    -0.0
                ],
                [
                    -0.0,
                    0.0,
                    2.62443
                ]
            ],
            [
                [
                    2.65779,
                    0.0243,
                    0.0
                ],
                [
                    -0.0243,
                    2.65779,
                    0.0
                ],
                [
                    -0.0,
                    0.0,
                    2.62441
                ]
            ],
            [
                [
                    1.10946,
                    0.00624,
                    0.0
                ],
                [
                    -0.00624,
                    1.10944,
                    0.0
                ],
                [
                    -0.0,
                    0.0,
                    1.15554
                ]
            ],
            [
                [
                    1.10946,
                    0.00624,
                    0.0
                ],
                [
                    -0.00624,
                    1.10944,
                    0.0
                ],
                [
                    -0.0,
                    0.0,
                    1.15554
                ]
            ],
            [
                [
                    4.13001,
                    0.33051,
                    1e-05
                ],
                [
                    -0.33051,
                    4.12999,
                    0.0
                ],
                [
                    -0.0,
                    0.0,
                    3.88103
                ]
            ],
            [
                [
                    4.35707,
                    0.00202,
                    -0.0
                ],
                [
                    -0.00202,
                    4.35706,
                    -0.0
                ],
                [
                    -0.0,
                    0.0,
                    3.63113
                ]
            ],
            [
                [
                    3.24864,
                    -0.28755,
                    -0.0
                ],
                [
                    0.28755,
                    3.24863,
                    0.0
                ],
                [
                    -0.0,
                    0.0,
                    0.45696
                ]
            ],
            [
                [
                    3.24867,
                    -0.28753,
                    0.0
                ],
                [
                    0.28753,
                    3.24867,
                    0.0
                ],
                [
                    -0.0,
                    0.0,
                    0.45697
                ]
            ],
            [
                [
                    3.03194,
                    -0.00485,
                    -0.0
                ],
                [
                    0.00485,
                    3.03193,
                    0.0
                ],
                [
                    -0.0,
                    0.0,
                    0.50428
                ]
            ],
            [
                [
                    3.03194,
                    -0.00489,
                    0.0
                ],
                [
                    0.00489,
                    3.03193,
                    0.0
                ],
                [
                    -0.0,
                    0.0,
                    0.50427
                ]
            ],
            [
                [
                    -1.31224,
                    -0.0502,
                    -0.04226
                ],
                [
                    -0.115,
                    -3.2836,
                    0.38751
                ],
                [
                    -0.05306,
                    0.2536,
                    -1.53206
                ]
            ],
            [
                [
                    -2.71923,
                    0.92733,
                    0.35672
                ],
                [
                    0.86251,
                    -1.87661,
                    -0.15716
                ],
                [
                    0.24616,
                    -0.08085,
                    -1.53206
                ]
            ],
            [
                [
                    -2.86229,
                    -0.77992,
                    -0.31447
                ],
                [
                    -0.84473,
                    -1.73355,
                    -0.23036
                ],
                [
                    -0.19309,
                    -0.17275,
                    -1.53206
                ]
            ],
            [
                [
                    -1.31219,
                    -0.05013,
                    -0.04222
                ],
                [
                    -0.11503,
                    -3.2836,
                    0.38751
                ],
                [
                    -0.05308,
                    0.25355,
                    -1.53208
                ]
            ],
            [
                [
                    -2.71924,
                    0.9274,
                    0.3567
                ],
                [
                    0.86249,
                    -1.87655,
                    -0.1572
                ],
                [
                    0.24612,
                    -0.0808,
                    -1.53208
                ]
            ],
            [
                [
                    -2.86228,
                    -0.7799,
                    -0.31449
                ],
                [
                    -0.8448,
                    -1.73352,
                    -0.23032
                ],
                [
                    -0.19304,
                    -0.17275,
                    -1.53208
                ]
            ],
            [
                [
                    -1.83239,
                    -0.00173,
                    0.00275
                ],
                [
                    -0.00061,
                    -3.09936,
                    0.56746
                ],
                [
                    -0.00089,
                    0.36623,
                    -1.30034
                ]
            ],
            [
                [
                    -2.78161,
                    0.54863,
                    0.49006
                ],
                [
                    0.54975,
                    -2.15015,
                    -0.28611
                ],
                [
                    0.31761,
                    -0.18234,
                    -1.30034
                ]
            ],
            [
                [
                    -2.78365,
                    -0.54858,
                    -0.49281
                ],
                [
                    -0.54746,
                    -2.14812,
                    -0.28135
                ],
                [
                    -0.31672,
                    -0.18389,
                    -1.30034
                ]
            ],
            [
                [
                    -1.83238,
                    -0.00172,
                    0.00269
                ],
                [
                    -0.0006,
                    -3.09935,
                    0.56747
                ],
                [
                    -0.00091,
                    0.36621,
                    -1.30036
                ]
            ],
            [
                [
                    -2.78161,
                    0.54863,
                    0.49008
                ],
                [
                    0.54975,
                    -2.15013,
                    -0.28606
                ],
                [
                    0.3176,
                    -0.18232,
                    -1.30036
                ]
            ],
            [
                [
                    -2.78363,
                    -0.54859,
                    -0.49278
                ],
                [
                    -0.54747,
                    -2.14811,
                    -0.28139
                ],
                [
                    -0.31669,
                    -0.18389,
                    -1.30036
                ]
            ]
        ]
    },
    "band_gap": 3.9513999999999996,
    "is_direct": true,
    "formula": "BaNaSc(BO3)2"
}