{
    "mp_id": "mp-19047",
    "nelements": 3,
    "nsites": 24,
    "elements": [
        "Mg",
        "Mo",
        "O"
    ],
    "structure": {
        "@module": "pymatgen.core.structure",
        "@class": "Structure",
        "charge": null,
        "lattice": {
            "matrix": [
                [
                    5.15907049,
                    -4.65001195,
                    0.00075514
                ],
                [
                    5.15907049,
                    4.65001195,
                    0.00075514
                ],
                [
                    -2.10815773,
                    0.0,
                    6.75295653
                ]
            ],
            "a": 6.945402797978534,
            "b": 6.945402797978534,
            "c": 7.074372828076592,
            "alpha": 102.78252883612653,
            "beta": 102.78252883612653,
            "gamma": 84.05841136310431,
            "volume": 324.0181402777974
        },
        "sites": [
            {
                "species": [
                    {
                        "element": "Mg",
                        "occu": 1
                    }
                ],
                "abc": [
                    0.70083958,
                    0.70083958,
                    0.85746268
                ],
                "xyz": [
                    5.423695013775474,
                    0.0,
                    5.791466668138183
                ],
                "label": "Mg",
                "properties": {}
            },
            {
                "species": [
                    {
                        "element": "Mg",
                        "occu": 1
                    }
                ],
                "abc": [
                    0.29916042,
                    0.29916042,
                    0.14253732
                ],
                "xyz": [
                    2.7862882362245283,
                    0.0,
                    0.9630001418618171
                ],
                "label": "Mg",
                "properties": {}
            },
            {
                "species": [
                    {
                        "element": "Mg",
                        "occu": 1
                    }
                ],
                "abc": [
                    0.67862715,
                    0.32137285,
                    0.5
                ],
                "xyz": [
                    4.104991625,
                    -1.6612367641888848,
                    3.3772334049999997
                ],
                "label": "Mg",
                "properties": {}
            },
            {
                "species": [
                    {
                        "element": "Mg",
                        "occu": 1
                    }
                ],
                "abc": [
                    0.32137285,
                    0.67862715,
                    0.5
                ],
                "xyz": [
                    4.104991625,
                    1.6612367641888848,
                    3.3772334049999997
                ],
                "label": "Mg",
                "properties": {}
            },
            {
                "species": [
                    {
                        "element": "Mo",
                        "occu": 1
                    }
                ],
                "abc": [
                    0.76896944,
                    0.76896944,
                    0.40488156
                ],
                "xyz": [
                    7.080780900783193,
                    0.0,
                    2.7353089336444296
                ],
                "label": "Mo",
                "properties": {}
            },
            {
                "species": [
                    {
                        "element": "Mo",
                        "occu": 1
                    }
                ],
                "abc": [
                    0.23103056,
                    0.23103056,
                    0.59511844
                ],
                "xyz": [
                    1.1292023492168077,
                    0.0,
                    4.01915787635557
                ],
                "label": "Mo",
                "properties": {}
            },
            {
                "species": [
                    {
                        "element": "Mo",
                        "occu": 1
                    }
                ],
                "abc": [
                    0.7483377,
                    0.2516623,
                    0.0
                ],
                "xyz": [
                    5.15907049,
                    -2.30954654527103,
                    0.00075514
                ],
                "label": "Mo",
                "properties": {}
            },
            {
                "species": [
                    {
                        "element": "Mo",
                        "occu": 1
                    }
                ],
                "abc": [
                    0.2516623,
                    0.7483377,
                    0.0
                ],
                "xyz": [
                    5.15907049,
                    2.30954654527103,
                    0.00075514
                ],
                "label": "Mo",
                "properties": {}
            },
            {
                "species": [
                    {
                        "element": "O",
                        "occu": 1
                    }
                ],
                "abc": [
                    0.69746243,
                    0.69746243,
                    0.14303214
                ],
                "xyz": [
                    6.894981369413939,
                    0.0,
                    0.9669431873716545
                ],
                "label": "O",
                "properties": {}
            },
            {
                "species": [
                    {
                        "element": "O",
                        "occu": 1
                    }
                ],
                "abc": [
                    0.30253757,
                    0.30253757,
                    0.85696786
                ],
                "xyz": [
                    1.3150018805860608,
                    0.0,
                    5.7875236226283455
                ],
                "label": "O",
                "properties": {}
            },
            {
                "species": [
                    {
                        "element": "O",
                        "occu": 1
                    }
                ],
                "abc": [
                    0.97705696,
                    0.29067977,
                    0.52732639
                ],
                "xyz": [
                    5.428655947520603,
                    -3.1916621357074195,
                    3.5619695075061193
                ],
                "label": "O",
                "properties": {}
            },
            {
                "species": [
                    {
                        "element": "O",
                        "occu": 1
                    }
                ],
                "abc": [
                    0.70932023,
                    0.02294304,
                    0.47267361
                ],
                "xyz": [
                    2.781327302479397,
                    -3.1916621357074204,
                    3.192497302493881
                ],
                "label": "O",
                "properties": {}
            },
            {
                "species": [
                    {
                        "element": "O",
                        "occu": 1
                    }
                ],
                "abc": [
                    0.02294304,
                    0.70932023,
                    0.47267361
                ],
                "xyz": [
                    2.781327302479397,
                    3.1916621357074204,
                    3.192497302493881
                ],
                "label": "O",
                "properties": {}
            },
            {
                "species": [
                    {
                        "element": "O",
                        "occu": 1
                    }
                ],
                "abc": [
                    0.29067977,
                    0.97705696,
                    0.52732639
                ],
                "xyz": [
                    5.428655947520603,
                    3.1916621357074195,
                    3.5619695075061193
                ],
                "label": "O",
                "properties": {}
            },
            {
                "species": [
                    {
                        "element": "O",
                        "occu": 1
                    }
                ],
                "abc": [
                    0.63942034,
                    0.63942034,
                    0.54031186
                ],
                "xyz": [
                    5.458566589329856,
                    0.0,
                    3.6496682069745403
                ],
                "label": "O",
                "properties": {}
            },
            {
                "species": [
                    {
                        "element": "O",
                        "occu": 1
                    }
                ],
                "abc": [
                    0.36057966,
                    0.36057966,
                    0.45968814
                ],
                "xyz": [
                    2.751416660670145,
                    0.0,
                    3.104798603025459
                ],
                "label": "O",
                "properties": {}
            },
            {
                "species": [
                    {
                        "element": "O",
                        "occu": 1
                    }
                ],
                "abc": [
                    0.39061127,
                    0.69464444,
                    0.80179459
                ],
                "xyz": [
                    3.908601244784318,
                    1.4137578736963814,
                    5.415303532256021
                ],
                "label": "O",
                "properties": {}
            },
            {
                "species": [
                    {
                        "element": "O",
                        "occu": 1
                    }
                ],
                "abc": [
                    0.30535556,
                    0.60938873,
                    0.19820541
                ],
                "xyz": [
                    4.301382005215683,
                    1.4137578736963816,
                    1.3391632777439777
                ],
                "label": "O",
                "properties": {}
            },
            {
                "species": [
                    {
                        "element": "O",
                        "occu": 1
                    }
                ],
                "abc": [
                    0.60938873,
                    0.30535556,
                    0.19820541
                ],
                "xyz": [
                    4.301382005215683,
                    -1.4137578736963816,
                    1.3391632777439777
                ],
                "label": "O",
                "properties": {}
            },
            {
                "species": [
                    {
                        "element": "O",
                        "occu": 1
                    }
                ],
                "abc": [
                    0.69464444,
                    0.39061127,
                    0.80179459
                ],
                "xyz": [
                    3.908601244784318,
                    -1.4137578736963814,
                    5.415303532256021
                ],
                "label": "O",
                "properties": {}
            },
            {
                "species": [
                    {
                        "element": "O",
                        "occu": 1
                    }
                ],
                "abc": [
                    0.71361573,
                    0.00160127,
                    0.89002348
                ],
                "xyz": [
                    1.8135450394028299,
                    -3.310875747572797,
                    6.0108299600847035
                ],
                "label": "O",
                "properties": {}
            },
            {
                "species": [
                    {
                        "element": "O",
                        "occu": 1
                    }
                ],
                "abc": [
                    0.28638427,
                    0.99839873,
                    0.10997652
                ],
                "xyz": [
                    6.396438210597171,
                    3.3108757475727972,
                    0.7436368499152956
                ],
                "label": "O",
                "properties": {}
            },
            {
                "species": [
                    {
                        "element": "O",
                        "occu": 1
                    }
                ],
                "abc": [
                    0.99839873,
                    0.28638427,
                    0.10997652
                ],
                "xyz": [
                    6.396438210597171,
                    -3.3108757475727972,
                    0.7436368499152956
                ],
                "label": "O",
                "properties": {}
            },
            {
                "species": [
                    {
                        "element": "O",
                        "occu": 1
                    }
                ],
                "abc": [
                    0.00160127,
                    0.71361573,
                    0.89002348
                ],
                "xyz": [
                    1.8135450394028299,
                    3.310875747572797,
                    6.0108299600847035
                ],
                "label": "O",
                "properties": {}
            }
        ]
    },
    "spacegroup": {
        "source": "spglib",
        "symbol": "C2/m",
        "number": 12,
        "point_group": "2/m",
        "crystal_system": "monoclinic",
        "hall": "-C 2y"
    },
    "dielectric": {
        "epsilon_ionic": [
            [
                4.10915171,
                -3e-08,
                -0.12281987
            ],
            [
                -3e-08,
                4.31327744,
                -2e-08
            ],
            [
                -0.12281987,
                -2e-08,
                3.84312731
            ]
        ],
        "epsilon_ionic_avg": 4.08851882,
        "epsilon_ionic_eig": [
            3.795095410909039,
            4.157183609090955,
            4.313277440000005
        ],
        "epsilon_electronic": [
            [
                3.39427031,
                0.0,
                -0.01796938
            ],
            [
                0.0,
                3.29550589,
                0.0
            ],
            [
                -0.01797192,
                0.0,
                3.40633969
            ]
        ],
        "epsilon_electronic_avg": 3.365371963333333,
        "epsilon_electronic_eig": [
            3.3813481610439475,
            3.4192618389560523,
            3.29550589
        ]
    },
    "phonon": {
        "lowest_freq": -0.05767618304887755,
        "frequency": [
            -0.05767618304887755,
            -0.05132563496474287,
            -0.043431172057970355,
            0.6694867352090145,
            2.0242313288524105,
            2.1812650038342714,
            2.3519666919473954,
            2.4759614018518237,
            2.48579287661133,
            2.9171937157068455,
            3.158937968549949,
            3.247916201870825,
            3.5794608705149895,
            3.7891055333673345,
            4.404758562956106,
            4.452241564623884,
            4.941425019865391,
            5.12760592405345,
            5.638148881645448,
            5.722842251941908,
            5.813759233183831,
            6.014557878266435,
            6.206243097099325,
            6.497775832719921,
            7.703364169786024,
            7.729200493010281,
            7.780976848840149,
            7.830000024605171,
            8.33166580160076,
            8.521079089698372,
            8.797524738277065,
            8.837812280211166,
            8.972637348066542,
            9.172930011064402,
            9.17460724726862,
            9.46610373002224,
            9.530205165070655,
            9.546892482851467,
            9.61473299480281,
            9.957232793382847,
            9.988994621356602,
            10.046284191377095,
            10.17240962382041,
            10.181821719643875,
            10.205802791388876,
            10.340500710068847,
            10.497015464878633,
            10.508660974274676,
            10.633924341727464,
            10.712018590312026,
            10.760400222121413,
            11.145235217714804,
            11.897056178306787,
            11.907927294661617,
            12.45240255123827,
            12.55654316943143,
            21.47530757383228,
            22.486525056304735,
            22.940031687552,
            23.924781243023894,
            24.43525835864065,
            25.131087734436523,
            25.82090291496531,
            25.929228476191657,
            26.577037518903083,
            26.980393831554547,
            27.571054068940455,
            27.628107622382327,
            28.032789472445682,
            28.143827686381545,
            28.49913680550905,
            28.652531236198534
        ]
    },
    "born_effective_charge": {
        "avg_abs_trace": 2.1255752777777777,
        "tensors": [
            [
                [
                    2.94148,
                    0.0,
                    -0.1648
                ],
                [
                    -0.0,
                    2.67627,
                    2e-05
                ],
                [
                    -0.28676,
                    0.0,
                    2.57575
                ]
            ],
            [
                [
                    2.94152,
                    0.0,
                    -0.16481
                ],
                [
                    0.0,
                    2.67627,
                    -2e-05
                ],
                [
                    -0.2868,
                    0.0,
                    2.57574
                ]
            ],
            [
                [
                    2.76853,
                    -1e-05,
                    -0.27088
                ],
                [
                    -0.0,
                    2.70597,
                    -0.0
                ],
                [
                    -0.08409,
                    -0.0,
                    2.76057
                ]
            ],
            [
                [
                    2.76853,
                    1e-05,
                    -0.27088
                ],
                [
                    -0.0,
                    2.70599,
                    -0.0
                ],
                [
                    -0.08409,
                    0.0,
                    2.76057
                ]
            ],
            [
                [
                    3.37845,
                    0.0,
                    0.26949
                ],
                [
                    0.00013,
                    3.50219,
                    6e-05
                ],
                [
                    0.02084,
                    0.0,
                    3.9944
                ]
            ],
            [
                [
                    3.37894,
                    0.0,
                    0.26952
                ],
                [
                    -0.00013,
                    3.50219,
                    -6e-05
                ],
                [
                    0.02052,
                    0.0,
                    3.99485
                ]
            ],
            [
                [
                    3.8362,
                    8e-05,
                    -0.12056
                ],
                [
                    -0.0,
                    3.47914,
                    -0.0
                ],
                [
                    0.30149,
                    4e-05,
                    3.64091
                ]
            ],
            [
                [
                    3.8362,
                    -8e-05,
                    -0.12056
                ],
                [
                    -0.0,
                    3.47915,
                    -0.0
                ],
                [
                    0.30149,
                    -4e-05,
                    3.64091
                ]
            ],
            [
                [
                    -0.90568,
                    0.0,
                    -0.40215
                ],
                [
                    -5e-05,
                    -0.9332,
                    -5e-05
                ],
                [
                    -0.34623,
                    0.0,
                    -2.9474
                ]
            ],
            [
                [
                    -0.90577,
                    0.0,
                    -0.4019
                ],
                [
                    5e-05,
                    -0.9332,
                    5e-05
                ],
                [
                    -0.34653,
                    0.0,
                    -2.9483
                ]
            ],
            [
                [
                    -1.27897,
                    0.96714,
                    -0.28651
                ],
                [
                    0.73929,
                    -2.05531,
                    0.46791
                ],
                [
                    -0.27785,
                    0.46095,
                    -0.84036
                ]
            ],
            [
                [
                    -1.27803,
                    -0.96535,
                    -0.28577
                ],
                [
                    -0.73929,
                    -2.05531,
                    -0.46791
                ],
                [
                    -0.27798,
                    -0.46122,
                    -0.84084
                ]
            ],
            [
                [
                    -1.27803,
                    0.96535,
                    -0.28577
                ],
                [
                    0.73921,
                    -2.05526,
                    0.46798
                ],
                [
                    -0.27798,
                    0.46122,
                    -0.84084
                ]
            ],
            [
                [
                    -1.27897,
                    -0.96714,
                    -0.28651
                ],
                [
                    -0.73921,
                    -2.05526,
                    -0.46798
                ],
                [
                    -0.27785,
                    -0.46095,
                    -0.84036
                ]
            ],
            [
                [
                    -2.71475,
                    0.0,
                    0.8723
                ],
                [
                    -0.00012,
                    -1.36901,
                    9e-05
                ],
                [
                    0.99992,
                    0.0,
                    -1.97845
                ]
            ],
            [
                [
                    -2.71547,
                    0.0,
                    0.87227
                ],
                [
                    0.00012,
                    -1.36901,
                    -9e-05
                ],
                [
                    1.0008,
                    0.0,
                    -1.9791
                ]
            ],
            [
                [
                    -1.64211,
                    0.59807,
                    0.76359
                ],
                [
                    0.50712,
                    -1.52372,
                    -0.58691
                ],
                [
                    0.50216,
                    -0.57133,
                    -2.22227
                ]
            ],
            [
                [
                    -1.64217,
                    -0.59801,
                    0.76362
                ],
                [
                    -0.50712,
                    -1.52372,
                    0.58691
                ],
                [
                    0.50202,
                    0.57127,
                    -2.22186
                ]
            ],
            [
                [
                    -1.64217,
                    0.59801,
                    0.76362
                ],
                [
                    0.50719,
                    -1.52379,
                    -0.58705
                ],
                [
                    0.50202,
                    -0.57127,
                    -2.22186
                ]
            ],
            [
                [
                    -1.64211,
                    -0.59807,
                    0.76359
                ],
                [
                    -0.50719,
                    -1.52379,
                    0.58705
                ],
                [
                    0.50216,
                    0.57133,
                    -2.22227
                ]
            ],
            [
                [
                    -1.73085,
                    -0.80987,
                    -0.56885
                ],
                [
                    -0.8891,
                    -1.45173,
                    -0.47016
                ],
                [
                    -0.52688,
                    -0.35571,
                    -0.96003
                ]
            ],
            [
                [
                    -1.73196,
                    -0.81115,
                    -0.5696
                ],
                [
                    -0.88875,
                    -1.45155,
                    -0.46993
                ],
                [
                    -0.52675,
                    -0.35619,
                    -0.95987
                ]
            ],
            [
                [
                    -1.73196,
                    0.81115,
                    -0.5696
                ],
                [
                    0.8891,
                    -1.45173,
                    0.47016
                ],
                [
                    -0.52675,
                    0.35619,
                    -0.95987
                ]
            ],
            [
                [
                    -1.73085,
                    0.80987,
                    -0.56885
                ],
                [
                    0.88875,
                    -1.45155,
                    0.46993
                ],
                [
                    -0.52688,
                    0.35571,
                    -0.96003
                ]
            ]
        ]
    },
    "band_gap": 3.582,
    "is_direct": false,
    "formula": "MgMoO4"
}