{
    "mp_id": "mp-13042",
    "nelements": 4,
    "nsites": 22,
    "elements": [
        "Na",
        "O",
        "Sr",
        "Ta"
    ],
    "structure": {
        "@module": "pymatgen.core.structure",
        "@class": "Structure",
        "charge": null,
        "lattice": {
            "matrix": [
                [
                    4.88171874,
                    2.81846192,
                    3.84699553
                ],
                [
                    -4.88171874,
                    2.81846192,
                    3.84699553
                ],
                [
                    0.0,
                    -5.63692383,
                    3.84699553
                ]
            ],
            "a": 6.824535153312441,
            "b": 6.824535153312441,
            "c": 6.824535506029831,
            "alpha": 91.3386807607099,
            "beta": 91.3386807607099,
            "gamma": 91.33867480172823,
            "volume": 317.5834461315755
        },
        "sites": [
            {
                "species": [
                    {
                        "element": "Na",
                        "occu": 1
                    }
                ],
                "abc": [
                    0.25,
                    0.25,
                    0.25
                ],
                "xyz": [
                    0.0,
                    2.4999999848063226e-09,
                    2.8852466475
                ],
                "label": "Na",
                "properties": {}
            },
            {
                "species": [
                    {
                        "element": "Na",
                        "occu": 1
                    }
                ],
                "abc": [
                    0.75,
                    0.75,
                    0.75
                ],
                "xyz": [
                    0.0,
                    7.499999732374363e-09,
                    8.655739942499999
                ],
                "label": "Na",
                "properties": {}
            },
            {
                "species": [
                    {
                        "element": "Sr",
                        "occu": 1
                    }
                ],
                "abc": [
                    0.60043547,
                    0.89956453,
                    0.25
                ],
                "xyz": [
                    -1.460263937880585,
                    2.818461922499999,
                    6.7322421775
                ],
                "label": "Sr",
                "properties": {}
            },
            {
                "species": [
                    {
                        "element": "Sr",
                        "occu": 1
                    }
                ],
                "abc": [
                    0.89956453,
                    0.25,
                    0.60043547
                ],
                "xyz": [
                    3.1709913389402926,
                    -0.1446051568325526,
                    6.7322421775
                ],
                "label": "Sr",
                "properties": {}
            },
            {
                "species": [
                    {
                        "element": "Sr",
                        "occu": 1
                    }
                ],
                "abc": [
                    0.25,
                    0.60043547,
                    0.89956453
                ],
                "xyz": [
                    -1.7107274010597076,
                    -2.6738567481674473,
                    6.7322421775
                ],
                "label": "Sr",
                "properties": {}
            },
            {
                "species": [
                    {
                        "element": "Sr",
                        "occu": 1
                    }
                ],
                "abc": [
                    0.39956453,
                    0.10043547,
                    0.75
                ],
                "xyz": [
                    1.4602639378805844,
                    -2.8184619125,
                    4.808744412499999
                ],
                "label": "Sr",
                "properties": {}
            },
            {
                "species": [
                    {
                        "element": "Sr",
                        "occu": 1
                    }
                ],
                "abc": [
                    0.10043547,
                    0.75,
                    0.39956453
                ],
                "xyz": [
                    -3.170991338940292,
                    0.14460516683255253,
                    4.808744412499999
                ],
                "label": "Sr",
                "properties": {}
            },
            {
                "species": [
                    {
                        "element": "Sr",
                        "occu": 1
                    }
                ],
                "abc": [
                    0.75,
                    0.39956453,
                    0.10043547
                ],
                "xyz": [
                    1.710727401059708,
                    2.673856758167447,
                    4.808744412499999
                ],
                "label": "Sr",
                "properties": {}
            },
            {
                "species": [
                    {
                        "element": "Ta",
                        "occu": 1
                    }
                ],
                "abc": [
                    0.5,
                    0.5,
                    0.5
                ],
                "xyz": [
                    0.0,
                    4.999999969612645e-09,
                    5.770493295
                ],
                "label": "Ta",
                "properties": {}
            },
            {
                "species": [
                    {
                        "element": "Ta",
                        "occu": 1
                    }
                ],
                "abc": [
                    0.0,
                    0.0,
                    0.0
                ],
                "xyz": [
                    0.0,
                    0.0,
                    0.0
                ],
                "label": "Ta",
                "properties": {}
            },
            {
                "species": [
                    {
                        "element": "O",
                        "occu": 1
                    }
                ],
                "abc": [
                    0.2194304,
                    0.42599108,
                    0.55361779
                ],
                "xyz": [
                    -1.0083711425031432,
                    -1.3016054494328941,
                    4.612698711984463
                ],
                "label": "O",
                "properties": {}
            },
            {
                "species": [
                    {
                        "element": "O",
                        "occu": 1
                    }
                ],
                "abc": [
                    0.42599108,
                    0.55361779,
                    0.2194304
                ],
                "xyz": [
                    -0.6230377019315454,
                    1.5240778458027981,
                    4.6126987119844625
                ],
                "label": "O",
                "properties": {}
            },
            {
                "species": [
                    {
                        "element": "O",
                        "occu": 1
                    }
                ],
                "abc": [
                    0.55361779,
                    0.2194304,
                    0.42599108
                ],
                "xyz": [
                    1.6314088444346886,
                    -0.22247238437951156,
                    4.612698711984463
                ],
                "label": "O",
                "properties": {}
            },
            {
                "species": [
                    {
                        "element": "O",
                        "occu": 1
                    }
                ],
                "abc": [
                    0.94638221,
                    0.07400892,
                    0.2805696
                ],
                "xyz": [
                    4.258681038068455,
                    1.2943840791972014,
                    5.004790113015537
                ],
                "label": "O",
                "properties": {}
            },
            {
                "species": [
                    {
                        "element": "O",
                        "occu": 1
                    }
                ],
                "abc": [
                    0.07400892,
                    0.2805696,
                    0.94638221
                ],
                "xyz": [
                    -1.008371142503143,
                    -4.335318375567105,
                    5.004790113015537
                ],
                "label": "O",
                "properties": {}
            },
            {
                "species": [
                    {
                        "element": "O",
                        "occu": 1
                    }
                ],
                "abc": [
                    0.2805696,
                    0.94638221,
                    0.07400892
                ],
                "xyz": [
                    -3.250309895565312,
                    3.0409343093795114,
                    5.004790113015536
                ],
                "label": "O",
                "properties": {}
            },
            {
                "species": [
                    {
                        "element": "O",
                        "occu": 1
                    }
                ],
                "abc": [
                    0.7805696,
                    0.57400892,
                    0.44638221
                ],
                "xyz": [
                    1.008371142503143,
                    1.3016054594328943,
                    6.928287878015537
                ],
                "label": "O",
                "properties": {}
            },
            {
                "species": [
                    {
                        "element": "O",
                        "occu": 1
                    }
                ],
                "abc": [
                    0.57400892,
                    0.44638221,
                    0.7805696
                ],
                "xyz": [
                    0.6230377019315454,
                    -1.5240778358027978,
                    6.928287878015537
                ],
                "label": "O",
                "properties": {}
            },
            {
                "species": [
                    {
                        "element": "O",
                        "occu": 1
                    }
                ],
                "abc": [
                    0.44638221,
                    0.7805696,
                    0.57400892
                ],
                "xyz": [
                    -1.6314088444346884,
                    0.2224723943795115,
                    6.928287878015537
                ],
                "label": "O",
                "properties": {}
            },
            {
                "species": [
                    {
                        "element": "O",
                        "occu": 1
                    }
                ],
                "abc": [
                    0.05361779,
                    0.92599108,
                    0.7194304
                ],
                "xyz": [
                    -4.258681038068454,
                    -1.2943840691972017,
                    6.536196476984463
                ],
                "label": "O",
                "properties": {}
            },
            {
                "species": [
                    {
                        "element": "O",
                        "occu": 1
                    }
                ],
                "abc": [
                    0.7194304,
                    0.05361779,
                    0.92599108
                ],
                "xyz": [
                    3.250309895565312,
                    -3.0409342993795114,
                    6.536196476984463
                ],
                "label": "O",
                "properties": {}
            },
            {
                "species": [
                    {
                        "element": "O",
                        "occu": 1
                    }
                ],
                "abc": [
                    0.92599108,
                    0.7194304,
                    0.05361779
                ],
                "xyz": [
                    1.0083711425031425,
                    4.335318385567105,
                    6.536196476984463
                ],
                "label": "O",
                "properties": {}
            }
        ]
    },
    "spacegroup": {
        "source": "spglib",
        "symbol": "R-3c",
        "number": 167,
        "point_group": "-3m",
        "crystal_system": "trigonal",
        "hall": "-R 3 2\"c"
    },
    "dielectric": {
        "epsilon_ionic": [
            [
                13.36327807,
                -1e-08,
                0.0
            ],
            [
                -1e-08,
                13.36334861,
                3.38e-06
            ],
            [
                0.0,
                3.38e-06,
                8.20960664
            ]
        ],
        "epsilon_ionic_avg": 11.64541110666667,
        "epsilon_ionic_eig": [
            13.363278069998582,
            13.36334861000364,
            8.209606639997784
        ],
        "epsilon_electronic": [
            [
                3.93620737,
                -0.0,
                -0.0
            ],
            [
                0.0,
                3.93620706,
                3.3e-07
            ],
            [
                0.0,
                3.3e-07,
                3.75370957
            ]
        ],
        "epsilon_electronic_avg": 3.875374666666667,
        "epsilon_electronic_eig": [
            3.753709569999403,
            3.936207060000597,
            3.93620737
        ]
    },
    "phonon": {
        "lowest_freq": -0.0981832672119248,
        "frequency": [
            -0.0981832672119248,
            -0.09818326322916654,
            -0.042046839498474875,
            2.910858873656767,
            2.9108589240336777,
            2.946919155595279,
            3.325044532686351,
            3.4318536794846044,
            3.535739118603576,
            3.5357391324281324,
            3.57790535710506,
            3.5779054151669953,
            3.6946021275649494,
            4.269221973328168,
            4.269222039162213,
            4.580375594522201,
            4.5803757305853505,
            4.585988570077507,
            4.610311031008746,
            4.610311038960492,
            4.9714781814779565,
            5.146458846560981,
            5.2056072199703,
            5.205607407767894,
            5.507587488935799,
            5.788021656426381,
            5.788021740876697,
            5.959361469689228,
            5.959361654239299,
            6.307456437817601,
            6.361923643147657,
            6.361923643147657,
            6.434718606292019,
            6.434718796199412,
            6.592974829591126,
            7.822895354452587,
            7.822895713731515,
            8.30678009243703,
            8.782288577754917,
            8.782288800384931,
            9.109515215709605,
            9.109515363269674,
            9.13388107005329,
            9.145675788120597,
            10.09785045453203,
            11.010530081522605,
            11.01053029239358,
            11.27234177572841,
            11.272342220197066,
            11.345758717378644,
            11.60132684448467,
            11.9036045337367,
            11.903604841710804,
            12.353616460339227,
            14.547320486788074,
            14.71128837885746,
            14.711289084914268,
            16.01768119614421,
            16.0751507490628,
            16.075151433224704,
            16.089316313569782,
            16.089316769276145,
            17.189491059308068,
            17.189491841297883,
            20.89589263345697,
            20.939757087601635
        ]
    },
    "born_effective_charge": {
        "avg_abs_trace": 2.6173062121212127,
        "tensors": [
            [
                [
                    0.81842,
                    0.0,
                    0.0
                ],
                [
                    -1e-05,
                    0.81841,
                    0.0
                ],
                [
                    -0.0,
                    0.0,
                    1.25629
                ]
            ],
            [
                [
                    0.81842,
                    0.0,
                    0.0
                ],
                [
                    1e-05,
                    0.81841,
                    0.0
                ],
                [
                    -0.0,
                    0.0,
                    1.25629
                ]
            ],
            [
                [
                    2.45268,
                    0.0,
                    0.0
                ],
                [
                    7e-05,
                    2.67567,
                    0.37107
                ],
                [
                    -5e-05,
                    0.36863,
                    2.38048
                ]
            ],
            [
                [
                    2.62001,
                    -0.09649,
                    0.32136
                ],
                [
                    -0.09652,
                    2.50869,
                    -0.18564
                ],
                [
                    0.31926,
                    -0.18427,
                    2.38048
                ]
            ],
            [
                [
                    2.62001,
                    0.09649,
                    -0.32136
                ],
                [
                    0.09644,
                    2.50839,
                    -0.18543
                ],
                [
                    -0.31922,
                    -0.18436,
                    2.38048
                ]
            ],
            [
                [
                    2.45297,
                    0.0,
                    0.0
                ],
                [
                    -7e-05,
                    2.67567,
                    0.37107
                ],
                [
                    5e-05,
                    0.36863,
                    2.38048
                ]
            ],
            [
                [
                    2.61988,
                    -0.09648,
                    0.32134
                ],
                [
                    -0.09644,
                    2.50839,
                    -0.18543
                ],
                [
                    0.31922,
                    -0.18436,
                    2.38048
                ]
            ],
            [
                [
                    2.61988,
                    0.09648,
                    -0.32134
                ],
                [
                    0.09652,
                    2.50869,
                    -0.18564
                ],
                [
                    -0.31926,
                    -0.18427,
                    2.38048
                ]
            ],
            [
                [
                    6.14639,
                    -0.04111,
                    -0.0
                ],
                [
                    0.04111,
                    6.14638,
                    0.0
                ],
                [
                    -0.0,
                    0.0,
                    5.47276
                ]
            ],
            [
                [
                    6.14639,
                    0.04111,
                    0.0
                ],
                [
                    -0.04111,
                    6.14638,
                    0.0
                ],
                [
                    -0.0,
                    0.0,
                    5.47276
                ]
            ],
            [
                [
                    -2.26434,
                    -0.50241,
                    -0.58016
                ],
                [
                    -0.56916,
                    -2.62147,
                    -0.79985
                ],
                [
                    -0.58156,
                    -0.77495,
                    -2.31178
                ]
            ],
            [
                [
                    -2.06822,
                    0.4559,
                    -0.40268
                ],
                [
                    0.38908,
                    -2.81763,
                    0.90245
                ],
                [
                    -0.38035,
                    0.89112,
                    -2.31178
                ]
            ],
            [
                [
                    -2.9962,
                    0.14662,
                    0.98292
                ],
                [
                    0.07988,
                    -1.88962,
                    -0.10252
                ],
                [
                    0.96191,
                    -0.11617,
                    -2.31178
                ]
            ],
            [
                [
                    -2.06822,
                    -0.4559,
                    0.40268
                ],
                [
                    -0.38922,
                    -2.81766,
                    0.90237
                ],
                [
                    0.38035,
                    0.89111,
                    -2.31171
                ]
            ],
            [
                [
                    -2.26434,
                    0.50241,
                    0.58016
                ],
                [
                    0.56916,
                    -2.62149,
                    -0.80003
                ],
                [
                    0.58155,
                    -0.77495,
                    -2.31171
                ]
            ],
            [
                [
                    -2.9962,
                    -0.14662,
                    -0.98292
                ],
                [
                    -0.07989,
                    -1.88968,
                    -0.10242
                ],
                [
                    -0.9619,
                    -0.11616,
                    -2.31171
                ]
            ],
            [
                [
                    -2.26439,
                    -0.50241,
                    -0.58018
                ],
                [
                    -0.56916,
                    -2.62149,
                    -0.80003
                ],
                [
                    -0.58155,
                    -0.77495,
                    -2.31171
                ]
            ],
            [
                [
                    -2.06818,
                    0.45588,
                    -0.40268
                ],
                [
                    0.38922,
                    -2.81766,
                    0.90237
                ],
                [
                    -0.38035,
                    0.89111,
                    -2.31171
                ]
            ],
            [
                [
                    -2.9962,
                    0.14664,
                    0.98279
                ],
                [
                    0.07989,
                    -1.88968,
                    -0.10242
                ],
                [
                    0.9619,
                    -0.11616,
                    -2.31171
                ]
            ],
            [
                [
                    -2.06818,
                    -0.45588,
                    0.40268
                ],
                [
                    -0.38908,
                    -2.81763,
                    0.90245
                ],
                [
                    0.38035,
                    0.89112,
                    -2.31178
                ]
            ],
            [
                [
                    -2.9962,
                    -0.14664,
                    -0.98279
                ],
                [
                    -0.07988,
                    -1.88962,
                    -0.10252
                ],
                [
                    -0.96191,
                    -0.11617,
                    -2.31178
                ]
            ],
            [
                [
                    -2.26439,
                    0.50241,
                    0.58018
                ],
                [
                    0.56916,
                    -2.62147,
                    -0.79985
                ],
                [
                    0.58156,
                    -0.77495,
                    -2.31178
                ]
            ]
        ]
    },
    "band_gap": 4.0563,
    "is_direct": true,
    "formula": "NaSr3TaO6"
}