{
    "mp_id": "mp-1221428",
    "nelements": 4,
    "nsites": 26,
    "elements": [
        "Al",
        "B",
        "Na",
        "O"
    ],
    "structure": {
        "@module": "pymatgen.core.structure",
        "@class": "Structure",
        "charge": null,
        "lattice": {
            "matrix": [
                [
                    2.40075903,
                    -4.14553946,
                    0.00011769
                ],
                [
                    2.40075903,
                    4.14553946,
                    0.00011769
                ],
                [
                    -0.23090322,
                    0.0,
                    15.00496943
                ]
            ],
            "a": 4.790526207880985,
            "b": 4.790526207880985,
            "c": 15.006745946148381,
            "alpha": 90.44040273375114,
            "beta": 90.44040273375114,
            "gamma": 119.84813902319065,
            "volume": 298.67238001522657
        },
        "sites": [
            {
                "species": [
                    {
                        "element": "Na",
                        "occu": 1
                    }
                ],
                "abc": [
                    0.98885664,
                    0.00728651,
                    0.50124413
                ],
                "xyz": [
                    2.275760778912046,
                    -4.06913770667233,
                    7.521270083704269
                ],
                "label": "Na",
                "properties": {}
            },
            {
                "species": [
                    {
                        "element": "Na",
                        "occu": 1
                    }
                ],
                "abc": [
                    0.00728651,
                    0.98885664,
                    0.00124413
                ],
                "xyz": [
                    2.391212388912046,
                    4.06913770667233,
                    0.018785368704269396
                ],
                "label": "Na",
                "properties": {}
            },
            {
                "species": [
                    {
                        "element": "Na",
                        "occu": 1
                    }
                ],
                "abc": [
                    0.03772596,
                    0.01878622,
                    0.25008756
                ],
                "xyz": [
                    0.07792610355404223,
                    -0.07851543953214042,
                    3.752562843541755
                ],
                "label": "Na",
                "properties": {}
            },
            {
                "species": [
                    {
                        "element": "Na",
                        "occu": 1
                    }
                ],
                "abc": [
                    0.01878622,
                    0.03772596,
                    0.75008756
                ],
                "xyz": [
                    -0.037525506445957785,
                    0.07851543953214042,
                    11.255047558541754
                ],
                "label": "Na",
                "properties": {}
            },
            {
                "species": [
                    {
                        "element": "Al",
                        "occu": 1
                    }
                ],
                "abc": [
                    0.68478194,
                    0.31647959,
                    0.86149718
                ],
                "xyz": [
                    2.2048651866561966,
                    -1.5268119251357313,
                    12.926856688400672
                ],
                "label": "Al",
                "properties": {}
            },
            {
                "species": [
                    {
                        "element": "Al",
                        "occu": 1
                    }
                ],
                "abc": [
                    0.31647959,
                    0.68478194,
                    0.36149718
                ],
                "xyz": [
                    2.3203167966561966,
                    1.5268119251357313,
                    5.424371973400673
                ],
                "label": "Al",
                "properties": {}
            },
            {
                "species": [
                    {
                        "element": "Al",
                        "occu": 1
                    }
                ],
                "abc": [
                    0.31454251,
                    0.62375191,
                    0.13885469
                ],
                "xyz": [
                    2.220556806580511,
                    1.281839769102924,
                    2.083620806532416
                ],
                "label": "Al",
                "properties": {}
            },
            {
                "species": [
                    {
                        "element": "Al",
                        "occu": 1
                    }
                ],
                "abc": [
                    0.62375191,
                    0.31454251,
                    0.63885469
                ],
                "xyz": [
                    2.105105196580511,
                    -1.281839769102924,
                    9.586105521532415
                ],
                "label": "Al",
                "properties": {}
            },
            {
                "species": [
                    {
                        "element": "B",
                        "occu": 1
                    }
                ],
                "abc": [
                    0.67672121,
                    0.37692306,
                    0.39574916
                ],
                "xyz": [
                    2.438166240253963,
                    -1.2428250608599989,
                    5.938328051142315
                ],
                "label": "B",
                "properties": {}
            },
            {
                "species": [
                    {
                        "element": "B",
                        "occu": 1
                    }
                ],
                "abc": [
                    0.37692306,
                    0.67672121,
                    0.89574916
                ],
                "xyz": [
                    2.3227146302539627,
                    1.2428250608599989,
                    13.440812766142315
                ],
                "label": "B",
                "properties": {}
            },
            {
                "species": [
                    {
                        "element": "B",
                        "occu": 1
                    }
                ],
                "abc": [
                    0.28904675,
                    0.67376669,
                    0.60370704
                ],
                "xyz": [
                    2.1720851608126948,
                    1.5948716923188324,
                    9.05871899338954
                ],
                "label": "B",
                "properties": {}
            },
            {
                "species": [
                    {
                        "element": "B",
                        "occu": 1
                    }
                ],
                "abc": [
                    0.67376669,
                    0.28904675,
                    0.10370704
                ],
                "xyz": [
                    2.2875367708126944,
                    -1.5948716923188324,
                    1.5562342783895409
                ],
                "label": "B",
                "properties": {}
            },
            {
                "species": [
                    {
                        "element": "O",
                        "occu": 1
                    }
                ],
                "abc": [
                    0.20906861,
                    0.59632252,
                    0.24990357
                ],
                "xyz": [
                    1.8758464890269086,
                    1.6053763649442883,
                    3.7498902147799544
                ],
                "label": "O",
                "properties": {}
            },
            {
                "species": [
                    {
                        "element": "O",
                        "occu": 1
                    }
                ],
                "abc": [
                    0.59632252,
                    0.20906861,
                    0.74990357
                ],
                "xyz": [
                    1.7603948790269086,
                    -1.6053763649442883,
                    11.252374929779952
                ],
                "label": "O",
                "properties": {}
            },
            {
                "species": [
                    {
                        "element": "O",
                        "occu": 1
                    }
                ],
                "abc": [
                    0.31273869,
                    0.40079993,
                    0.61459459
                ],
                "xyz": [
                    1.5711224153931589,
                    0.3650613453165308,
                    9.222057011153572
                ],
                "label": "O",
                "properties": {}
            },
            {
                "species": [
                    {
                        "element": "O",
                        "occu": 1
                    }
                ],
                "abc": [
                    0.99672285,
                    0.65969696,
                    0.61756123
                ],
                "xyz": [
                    3.8340679397742243,
                    -1.3971541260366194,
                    9.266682321350636
                ],
                "label": "O",
                "properties": {}
            },
            {
                "species": [
                    {
                        "element": "O",
                        "occu": 1
                    }
                ],
                "abc": [
                    0.5487309,
                    0.96320898,
                    0.57936037
                ],
                "xyz": [
                    3.4960271447537252,
                    1.7182352359450364,
                    8.693462581007966
                ],
                "label": "O",
                "properties": {}
            },
            {
                "species": [
                    {
                        "element": "O",
                        "occu": 1
                    }
                ],
                "abc": [
                    0.65969696,
                    0.99672285,
                    0.11756123
                ],
                "xyz": [
                    3.9495195497742244,
                    1.3971541260366194,
                    1.7641976063506377
                ],
                "label": "O",
                "properties": {}
            },
            {
                "species": [
                    {
                        "element": "O",
                        "occu": 1
                    }
                ],
                "abc": [
                    0.40079993,
                    0.31273869,
                    0.11459459
                ],
                "xyz": [
                    1.686574025393159,
                    -0.3650613453165308,
                    1.7195722961535713
                ],
                "label": "O",
                "properties": {}
            },
            {
                "species": [
                    {
                        "element": "O",
                        "occu": 1
                    }
                ],
                "abc": [
                    0.96320898,
                    0.5487309,
                    0.07936037
                ],
                "xyz": [
                    3.6114787547537253,
                    -1.7182352359450364,
                    1.1909778660079662
                ],
                "label": "O",
                "properties": {}
            },
            {
                "species": [
                    {
                        "element": "O",
                        "occu": 1
                    }
                ],
                "abc": [
                    0.65971383,
                    0.65584837,
                    0.38785973
                ],
                "xyz": [
                    3.0687897706113354,
                    -0.016024416961051724,
                    5.819978220293372
                ],
                "label": "O",
                "properties": {}
            },
            {
                "species": [
                    {
                        "element": "O",
                        "occu": 1
                    }
                ],
                "abc": [
                    0.9696113,
                    0.40677545,
                    0.41932659
                ],
                "xyz": [
                    3.2075490589722326,
                    -2.333258225677641,
                    6.292144651092751
                ],
                "label": "O",
                "properties": {}
            },
            {
                "species": [
                    {
                        "element": "O",
                        "occu": 1
                    }
                ],
                "abc": [
                    0.40332062,
                    0.08491799,
                    0.38025516
                ],
                "xyz": [
                    1.0843411108865333,
                    -1.3199506668327798,
                    5.705774512201769
                ],
                "label": "O",
                "properties": {}
            },
            {
                "species": [
                    {
                        "element": "O",
                        "occu": 1
                    }
                ],
                "abc": [
                    0.40677545,
                    0.9696113,
                    0.91932659
                ],
                "xyz": [
                    3.0920974489722326,
                    2.333258225677641,
                    13.794629366092751
                ],
                "label": "O",
                "properties": {}
            },
            {
                "species": [
                    {
                        "element": "O",
                        "occu": 1
                    }
                ],
                "abc": [
                    0.65584837,
                    0.65971383,
                    0.88785973
                ],
                "xyz": [
                    2.9533381606113354,
                    0.016024416961051724,
                    13.322462935293371
                ],
                "label": "O",
                "properties": {}
            },
            {
                "species": [
                    {
                        "element": "O",
                        "occu": 1
                    }
                ],
                "abc": [
                    0.08491799,
                    0.40332062,
                    0.88025516
                ],
                "xyz": [
                    0.9688895008865333,
                    1.3199506668327798,
                    13.20825922720177
                ],
                "label": "O",
                "properties": {}
            }
        ]
    },
    "spacegroup": {
        "source": "spglib",
        "symbol": "Cc",
        "number": 9,
        "point_group": "m",
        "crystal_system": "monoclinic",
        "hall": "C -2yc"
    },
    "dielectric": {
        "epsilon_ionic": [
            [
                4.19628032,
                -4.6e-07,
                -0.4671606
            ],
            [
                -4.6e-07,
                4.26703542,
                -4.35e-06
            ],
            [
                -0.4671606,
                -4.35e-06,
                5.36789588
            ]
        ],
        "epsilon_ionic_avg": 4.610403873333332,
        "epsilon_ionic_eig": [
            5.531360935033685,
            4.032815264963731,
            4.267035420002579
        ],
        "epsilon_electronic": [
            [
                2.61621654,
                0.0,
                -0.00145699
            ],
            [
                0.0,
                2.59962081,
                0.0
            ],
            [
                -0.00145603,
                0.0,
                2.34283707
            ]
        ],
        "epsilon_electronic_avg": 2.5195581399999996,
        "epsilon_electronic_eig": [
            2.6162242997668024,
            2.3428293102331974,
            2.59962081
        ]
    },
    "phonon": {
        "lowest_freq": -0.25151672746211984,
        "frequency": [
            -0.25151672746211984,
            -0.19913722424382604,
            -0.09728075558848559,
            1.1468575802849699,
            1.7410696349478392,
            1.8929293468728208,
            2.047783809468156,
            2.3964446610260053,
            2.62715381853308,
            2.7874115914737403,
            3.133000986018187,
            3.2464620982689567,
            3.6065806936133464,
            3.9556493825251313,
            4.026546449455784,
            4.241806339798514,
            4.280387387510677,
            4.293465607009962,
            5.093015100495615,
            5.2739745651145515,
            5.404358178262862,
            5.523085278810115,
            5.892094359268599,
            6.004171930440802,
            6.0626462568519175,
            6.064337591852056,
            6.377088561806605,
            6.817607308780097,
            6.974513582210184,
            7.182111195712735,
            7.509024486562194,
            7.678963842636057,
            8.686930308801966,
            8.881325166080396,
            9.458960206282894,
            9.576232346264074,
            10.079152169285742,
            10.364605710345064,
            12.390266401075412,
            12.408906760299066,
            14.02629660197344,
            14.275273557115066,
            14.745784612353905,
            14.763685640773891,
            14.997109867557791,
            15.055982095161207,
            15.174159571577437,
            15.185109870622023,
            15.297950230306338,
            15.307020434565382,
            17.812532503292847,
            18.134082000596816,
            20.37451070298647,
            20.713121408698935,
            21.01480080621253,
            21.159614253217924,
            22.00920062671204,
            22.168135957506706,
            22.523952196577337,
            22.65071146460864,
            22.999357017869524,
            23.101026044567618,
            23.201331355533164,
            23.2735276100879,
            28.494266762242994,
            29.23055891940798,
            29.492165510010377,
            29.56623738831534,
            29.643858595628828,
            30.138397173633155,
            37.02956399667745,
            37.06010079156075,
            37.07615035826227,
            37.12234249316047,
            38.093491479660784,
            38.12255604875123,
            38.281852205332854,
            38.41632289130482
        ]
    },
    "born_effective_charge": {
        "avg_abs_trace": 1.7557755128205128,
        "tensors": [
            [
                [
                    1.05047,
                    -0.0182,
                    0.00666
                ],
                [
                    0.02833,
                    1.08855,
                    0.01434
                ],
                [
                    0.00493,
                    0.00201,
                    1.10293
                ]
            ],
            [
                [
                    1.05047,
                    0.0182,
                    0.00666
                ],
                [
                    -0.02833,
                    1.08855,
                    -0.01434
                ],
                [
                    0.00493,
                    -0.00201,
                    1.10293
                ]
            ],
            [
                [
                    1.10207,
                    0.00496,
                    -0.01133
                ],
                [
                    0.00653,
                    1.11533,
                    -0.01761
                ],
                [
                    -0.00862,
                    -0.01491,
                    1.09978
                ]
            ],
            [
                [
                    1.10207,
                    -0.00496,
                    -0.01133
                ],
                [
                    -0.00653,
                    1.11533,
                    0.01761
                ],
                [
                    -0.00862,
                    0.01491,
                    1.09978
                ]
            ],
            [
                [
                    2.62265,
                    -0.22663,
                    -0.03373
                ],
                [
                    0.20921,
                    2.66883,
                    -0.07368
                ],
                [
                    0.13307,
                    -0.01798,
                    2.48004
                ]
            ],
            [
                [
                    2.62265,
                    0.22663,
                    -0.03373
                ],
                [
                    -0.20921,
                    2.66883,
                    0.07368
                ],
                [
                    0.13307,
                    0.01798,
                    2.48004
                ]
            ],
            [
                [
                    2.68406,
                    -0.19435,
                    0.07619
                ],
                [
                    0.23271,
                    2.61551,
                    0.02085
                ],
                [
                    -0.072,
                    0.10024,
                    2.43867
                ]
            ],
            [
                [
                    2.68406,
                    0.19435,
                    0.07619
                ],
                [
                    -0.23271,
                    2.61551,
                    -0.02085
                ],
                [
                    -0.072,
                    -0.10024,
                    2.43867
                ]
            ],
            [
                [
                    2.72588,
                    -0.23812,
                    0.35701
                ],
                [
                    0.23986,
                    2.59773,
                    -0.31538
                ],
                [
                    0.27153,
                    -0.35906,
                    0.72006
                ]
            ],
            [
                [
                    2.72588,
                    0.23812,
                    0.35701
                ],
                [
                    -0.23986,
                    2.59773,
                    0.31538
                ],
                [
                    0.27153,
                    0.35906,
                    0.72006
                ]
            ],
            [
                [
                    2.62238,
                    -0.1872,
                    -0.43542
                ],
                [
                    0.28216,
                    2.70047,
                    -0.0566
                ],
                [
                    -0.38418,
                    0.01893,
                    0.80221
                ]
            ],
            [
                [
                    2.62238,
                    0.1872,
                    -0.43542
                ],
                [
                    -0.28216,
                    2.70047,
                    0.0566
                ],
                [
                    -0.38418,
                    -0.01893,
                    0.80221
                ]
            ],
            [
                [
                    -1.38139,
                    0.02645,
                    -0.05104
                ],
                [
                    0.02577,
                    -1.34624,
                    -0.10132
                ],
                [
                    -0.02938,
                    -0.07142,
                    -2.30049
                ]
            ],
            [
                [
                    -1.38139,
                    -0.02645,
                    -0.05104
                ],
                [
                    -0.02577,
                    -1.34624,
                    0.10132
                ],
                [
                    -0.02938,
                    0.07142,
                    -2.30049
                ]
            ],
            [
                [
                    -1.33605,
                    -0.21571,
                    0.04484
                ],
                [
                    -0.25851,
                    -2.60968,
                    0.20466
                ],
                [
                    0.07041,
                    0.25989,
                    -0.99296
                ]
            ],
            [
                [
                    -2.02527,
                    0.58122,
                    0.22094
                ],
                [
                    0.5468,
                    -1.80789,
                    -0.11399
                ],
                [
                    0.22095,
                    -0.13317,
                    -1.01803
                ]
            ],
            [
                [
                    -2.32039,
                    -0.32009,
                    0.10263
                ],
                [
                    -0.38308,
                    -1.34578,
                    -0.07906
                ],
                [
                    0.11108,
                    -0.11527,
                    -1.1686
                ]
            ],
            [
                [
                    -2.02527,
                    -0.58122,
                    0.22094
                ],
                [
                    -0.5468,
                    -1.80789,
                    0.11399
                ],
                [
                    0.22095,
                    0.13317,
                    -1.01803
                ]
            ],
            [
                [
                    -1.33605,
                    0.21571,
                    0.04484
                ],
                [
                    0.25851,
                    -2.60968,
                    -0.20466
                ],
                [
                    0.07041,
                    -0.25989,
                    -0.99296
                ]
            ],
            [
                [
                    -2.32039,
                    0.32009,
                    0.10263
                ],
                [
                    0.38308,
                    -1.34577,
                    0.07906
                ],
                [
                    0.11108,
                    0.11527,
                    -1.1686
                ]
            ],
            [
                [
                    -1.36841,
                    -0.17707,
                    -0.03478
                ],
                [
                    -0.22163,
                    -2.47358,
                    0.21758
                ],
                [
                    -0.04628,
                    0.20226,
                    -0.97973
                ]
            ],
            [
                [
                    -1.90641,
                    0.62913,
                    -0.00637
                ],
                [
                    0.57405,
                    -1.76313,
                    0.12077
                ],
                [
                    0.01323,
                    0.16893,
                    -1.17953
                ]
            ],
            [
                [
                    -2.46958,
                    -0.39227,
                    -0.23559
                ],
                [
                    -0.44411,
                    -1.44013,
                    -0.0694
                ],
                [
                    -0.28474,
                    -0.04317,
                    -1.00436
                ]
            ],
            [
                [
                    -1.90641,
                    -0.62913,
                    -0.00637
                ],
                [
                    -0.57405,
                    -1.76313,
                    -0.12077
                ],
                [
                    0.01323,
                    -0.16893,
                    -1.17953
                ]
            ],
            [
                [
                    -1.36841,
                    0.17707,
                    -0.03478
                ],
                [
                    0.22163,
                    -2.47358,
                    -0.21758
                ],
                [
                    -0.04628,
                    -0.20226,
                    -0.97973
                ]
            ],
            [
                [
                    -2.46958,
                    0.39227,
                    -0.23559
                ],
                [
                    0.44411,
                    -1.44013,
                    0.0694
                ],
                [
                    -0.28474,
                    0.04317,
                    -1.00436
                ]
            ]
        ]
    },
    "band_gap": 4.537699999999999,
    "is_direct": false,
    "formula": "Na2Al2B2O7"
}