{
    "mp_id": "mp-1219566",
    "nelements": 4,
    "nsites": 32,
    "elements": [
        "Nb",
        "O",
        "Rb",
        "Ti"
    ],
    "structure": {
        "@module": "pymatgen.core.structure",
        "@class": "Structure",
        "charge": null,
        "lattice": {
            "matrix": [
                [
                    6.49093547,
                    0.0,
                    0.0
                ],
                [
                    0.0,
                    3.89021908,
                    0.0
                ],
                [
                    0.0,
                    0.0,
                    18.96702877
                ]
            ],
            "a": 6.49093547,
            "b": 3.89021908,
            "c": 18.96702877,
            "alpha": 90.0,
            "beta": 90.0,
            "gamma": 90.0,
            "volume": 478.9394973989043
        },
        "sites": [
            {
                "species": [
                    {
                        "element": "Rb",
                        "occu": 1
                    }
                ],
                "abc": [
                    0.78253467,
                    0.25,
                    0.19320077
                ],
                "xyz": [
                    5.079382046007745,
                    0.97255477,
                    3.6644445629761524
                ],
                "label": "Rb",
                "properties": {}
            },
            {
                "species": [
                    {
                        "element": "Rb",
                        "occu": 1
                    }
                ],
                "abc": [
                    0.28253467,
                    0.25,
                    0.30679923
                ],
                "xyz": [
                    1.833914311007745,
                    0.97255477,
                    5.819069822023846
                ],
                "label": "Rb",
                "properties": {}
            },
            {
                "species": [
                    {
                        "element": "Rb",
                        "occu": 1
                    }
                ],
                "abc": [
                    0.21746533,
                    0.75,
                    0.80679923
                ],
                "xyz": [
                    1.4115534239922551,
                    2.91766431,
                    15.302584207023846
                ],
                "label": "Rb",
                "properties": {}
            },
            {
                "species": [
                    {
                        "element": "Rb",
                        "occu": 1
                    }
                ],
                "abc": [
                    0.71746533,
                    0.75,
                    0.69320077
                ],
                "xyz": [
                    4.657021158992255,
                    2.91766431,
                    13.147958947976152
                ],
                "label": "Rb",
                "properties": {}
            },
            {
                "species": [
                    {
                        "element": "Ti",
                        "occu": 1
                    }
                ],
                "abc": [
                    0.32525084,
                    0.25,
                    0.96893781
                ],
                "xyz": [
                    2.111182214003295,
                    0.97255477,
                    18.377871318610794
                ],
                "label": "Ti",
                "properties": {}
            },
            {
                "species": [
                    {
                        "element": "Ti",
                        "occu": 1
                    }
                ],
                "abc": [
                    0.82525084,
                    0.25,
                    0.53106219
                ],
                "xyz": [
                    5.3566499490032955,
                    0.97255477,
                    10.072671836389205
                ],
                "label": "Ti",
                "properties": {}
            },
            {
                "species": [
                    {
                        "element": "Ti",
                        "occu": 1
                    }
                ],
                "abc": [
                    0.67474916,
                    0.75,
                    0.03106219
                ],
                "xyz": [
                    4.379753255996705,
                    2.91766431,
                    0.5891574513892063
                ],
                "label": "Ti",
                "properties": {}
            },
            {
                "species": [
                    {
                        "element": "Ti",
                        "occu": 1
                    }
                ],
                "abc": [
                    0.17474916,
                    0.75,
                    0.46893781
                ],
                "xyz": [
                    1.134285520996705,
                    2.91766431,
                    8.894356933610794
                ],
                "label": "Ti",
                "properties": {}
            },
            {
                "species": [
                    {
                        "element": "Nb",
                        "occu": 1
                    }
                ],
                "abc": [
                    0.77506335,
                    0.25,
                    0.89347508
                ],
                "xyz": [
                    5.0308861900120245,
                    0.97255477,
                    16.94656754763805
                ],
                "label": "Nb",
                "properties": {}
            },
            {
                "species": [
                    {
                        "element": "Nb",
                        "occu": 1
                    }
                ],
                "abc": [
                    0.27506335,
                    0.25,
                    0.60652492
                ],
                "xyz": [
                    1.7854184550120245,
                    0.97255477,
                    11.503975607361948
                ],
                "label": "Nb",
                "properties": {}
            },
            {
                "species": [
                    {
                        "element": "Nb",
                        "occu": 1
                    }
                ],
                "abc": [
                    0.22493665,
                    0.75,
                    0.10652492
                ],
                "xyz": [
                    1.4600492799879754,
                    2.91766431,
                    2.020461222361948
                ],
                "label": "Nb",
                "properties": {}
            },
            {
                "species": [
                    {
                        "element": "Nb",
                        "occu": 1
                    }
                ],
                "abc": [
                    0.72493665,
                    0.75,
                    0.39347508
                ],
                "xyz": [
                    4.705517014987976,
                    2.91766431,
                    7.463053162638051
                ],
                "label": "Nb",
                "properties": {}
            },
            {
                "species": [
                    {
                        "element": "O",
                        "occu": 1
                    }
                ],
                "abc": [
                    0.23826925,
                    0.25,
                    0.07721843
                ],
                "xyz": [
                    1.5465903262352974,
                    0.97255477,
                    1.4646041833842312
                ],
                "label": "O",
                "properties": {}
            },
            {
                "species": [
                    {
                        "element": "O",
                        "occu": 1
                    }
                ],
                "abc": [
                    0.73826925,
                    0.25,
                    0.42278157
                ],
                "xyz": [
                    4.792058061235298,
                    0.97255477,
                    8.018910201615768
                ],
                "label": "O",
                "properties": {}
            },
            {
                "species": [
                    {
                        "element": "O",
                        "occu": 1
                    }
                ],
                "abc": [
                    0.76173075,
                    0.75,
                    0.92278157
                ],
                "xyz": [
                    4.944345143764703,
                    2.91766431,
                    17.502424586615767
                ],
                "label": "O",
                "properties": {}
            },
            {
                "species": [
                    {
                        "element": "O",
                        "occu": 1
                    }
                ],
                "abc": [
                    0.26173075,
                    0.75,
                    0.57721843
                ],
                "xyz": [
                    1.6988774087647027,
                    2.91766431,
                    10.94811856838423
                ],
                "label": "O",
                "properties": {}
            },
            {
                "species": [
                    {
                        "element": "O",
                        "occu": 1
                    }
                ],
                "abc": [
                    0.84343585,
                    0.25,
                    0.80055026
                ],
                "xyz": [
                    5.474687675434599,
                    0.97255477,
                    15.184059813250979
                ],
                "label": "O",
                "properties": {}
            },
            {
                "species": [
                    {
                        "element": "O",
                        "occu": 1
                    }
                ],
                "abc": [
                    0.34343585,
                    0.25,
                    0.69944974
                ],
                "xyz": [
                    2.2292199404345996,
                    0.97255477,
                    13.26648334174902
                ],
                "label": "O",
                "properties": {}
            },
            {
                "species": [
                    {
                        "element": "O",
                        "occu": 1
                    }
                ],
                "abc": [
                    0.15656415,
                    0.75,
                    0.19944974
                ],
                "xyz": [
                    1.0162477945654007,
                    2.91766431,
                    3.7829689567490195
                ],
                "label": "O",
                "properties": {}
            },
            {
                "species": [
                    {
                        "element": "O",
                        "occu": 1
                    }
                ],
                "abc": [
                    0.65656415,
                    0.75,
                    0.30055026
                ],
                "xyz": [
                    4.261715529565401,
                    2.91766431,
                    5.70054542825098
                ],
                "label": "O",
                "properties": {}
            },
            {
                "species": [
                    {
                        "element": "O",
                        "occu": 1
                    }
                ],
                "abc": [
                    0.46667737,
                    0.25,
                    0.8816059
                ],
                "xyz": [
                    3.029172693979314,
                    0.97255477,
                    16.721444469101744
                ],
                "label": "O",
                "properties": {}
            },
            {
                "species": [
                    {
                        "element": "O",
                        "occu": 1
                    }
                ],
                "abc": [
                    0.96667737,
                    0.25,
                    0.6183941
                ],
                "xyz": [
                    6.274640428979314,
                    0.97255477,
                    11.729098685898256
                ],
                "label": "O",
                "properties": {}
            },
            {
                "species": [
                    {
                        "element": "O",
                        "occu": 1
                    }
                ],
                "abc": [
                    0.53332263,
                    0.75,
                    0.1183941
                ],
                "xyz": [
                    3.461762776020686,
                    2.91766431,
                    2.245584300898257
                ],
                "label": "O",
                "properties": {}
            },
            {
                "species": [
                    {
                        "element": "O",
                        "occu": 1
                    }
                ],
                "abc": [
                    0.03332263,
                    0.75,
                    0.3816059
                ],
                "xyz": [
                    0.21629504102068609,
                    2.91766431,
                    7.237930084101743
                ],
                "label": "O",
                "properties": {}
            },
            {
                "species": [
                    {
                        "element": "O",
                        "occu": 1
                    }
                ],
                "abc": [
                    0.06652628,
                    0.25,
                    0.92979484
                ],
                "xyz": [
                    0.4318177905391516,
                    0.97255477,
                    17.635445480477546
                ],
                "label": "O",
                "properties": {}
            },
            {
                "species": [
                    {
                        "element": "O",
                        "occu": 1
                    }
                ],
                "abc": [
                    0.56652628,
                    0.25,
                    0.57020516
                ],
                "xyz": [
                    3.677285525539152,
                    0.97255477,
                    10.815097674522452
                ],
                "label": "O",
                "properties": {}
            },
            {
                "species": [
                    {
                        "element": "O",
                        "occu": 1
                    }
                ],
                "abc": [
                    0.93347372,
                    0.75,
                    0.07020516
                ],
                "xyz": [
                    6.059117679460848,
                    2.91766431,
                    1.331583289522453
                ],
                "label": "O",
                "properties": {}
            },
            {
                "species": [
                    {
                        "element": "O",
                        "occu": 1
                    }
                ],
                "abc": [
                    0.43347372,
                    0.75,
                    0.42979484
                ],
                "xyz": [
                    2.8136499444608485,
                    2.91766431,
                    8.151931095477547
                ],
                "label": "O",
                "properties": {}
            },
            {
                "species": [
                    {
                        "element": "O",
                        "occu": 1
                    }
                ],
                "abc": [
                    0.63973629,
                    0.25,
                    0.00898996
                ],
                "xyz": [
                    4.152486976207206,
                    0.97255477,
                    0.1705128299611492
                ],
                "label": "O",
                "properties": {}
            },
            {
                "species": [
                    {
                        "element": "O",
                        "occu": 1
                    }
                ],
                "abc": [
                    0.13973629,
                    0.25,
                    0.49101004
                ],
                "xyz": [
                    0.9070192412072065,
                    0.97255477,
                    9.31300155503885
                ],
                "label": "O",
                "properties": {}
            },
            {
                "species": [
                    {
                        "element": "O",
                        "occu": 1
                    }
                ],
                "abc": [
                    0.36026371,
                    0.75,
                    0.99101004
                ],
                "xyz": [
                    2.338448493792794,
                    2.91766431,
                    18.79651594003885
                ],
                "label": "O",
                "properties": {}
            },
            {
                "species": [
                    {
                        "element": "O",
                        "occu": 1
                    }
                ],
                "abc": [
                    0.86026371,
                    0.75,
                    0.50898996
                ],
                "xyz": [
                    5.583916228792794,
                    2.91766431,
                    9.654027214961149
                ],
                "label": "O",
                "properties": {}
            }
        ]
    },
    "spacegroup": {
        "source": "spglib",
        "symbol": "Pnma",
        "number": 62,
        "point_group": "mmm",
        "crystal_system": "orthorhombic",
        "hall": "-P 2ac 2n"
    },
    "dielectric": {
        "epsilon_ionic": [
            [
                22.55654664,
                -3.8e-07,
                5e-08
            ],
            [
                -3.8e-07,
                13.85143237,
                -7e-08
            ],
            [
                5e-08,
                -7e-08,
                6.09829717
            ]
        ],
        "epsilon_ionic_avg": 14.168758726666674,
        "epsilon_ionic_eig": [
            22.55654664000003,
            13.851432369999994,
            6.0982971699999995
        ],
        "epsilon_electronic": [
            [
                5.19906861,
                0.0,
                0.0
            ],
            [
                0.0,
                4.5327037,
                0.0
            ],
            [
                0.0,
                0.0,
                3.76083343
            ]
        ],
        "epsilon_electronic_avg": 4.497535246666667,
        "epsilon_electronic_eig": [
            5.19906861,
            4.5327037,
            3.76083343
        ]
    },
    "phonon": {
        "lowest_freq": -0.06425720788855978,
        "frequency": [
            -0.06425720788855978,
            -0.054019172698563885,
            -0.0377479532067497,
            1.0218168792309785,
            1.2070174362624178,
            1.5570668650647093,
            1.6326796701794004,
            1.6939783433068059,
            1.773029468759827,
            1.8396048633832922,
            2.2185531014275615,
            2.2422910510626424,
            2.289147097897151,
            2.2996809943738397,
            2.495946007046335,
            2.49653525222306,
            2.6602045993425665,
            2.68146145154128,
            2.998211396828395,
            3.058054120417177,
            3.33231698928871,
            3.340747569552977,
            4.298576423397722,
            4.304566993190435,
            4.614226294938528,
            4.745488814374765,
            5.245813084448288,
            5.357197064215598,
            5.493798749236257,
            5.4942105235186345,
            5.518522589961744,
            5.674023215833964,
            6.187416256501642,
            6.216063737953011,
            6.230193057302429,
            6.238740541212659,
            7.115162328159977,
            7.1318671035322145,
            7.153933257219941,
            7.205667175482875,
            7.274592783855767,
            7.292975513391507,
            7.379478771257028,
            7.497638184328925,
            7.509521828758951,
            7.6823182249513895,
            7.687107104171179,
            7.704736215063514,
            7.719182677585144,
            7.727859957919013,
            7.931198423530532,
            7.9336175738468295,
            8.136750283119916,
            8.44208944368466,
            9.055252688159218,
            9.088966863453644,
            9.23204031978325,
            9.306894231328128,
            10.22538396624068,
            10.227947467348798,
            10.830127505351328,
            10.8515096959208,
            10.859827186293984,
            10.882246713592219,
            12.566538647950374,
            12.571416392513848,
            12.907259064483656,
            12.912549789098723,
            13.254980866119508,
            13.277254012098053,
            14.368291701590762,
            14.373668103845228,
            15.25324425824474,
            15.458300899340053,
            15.892328860125046,
            16.220792099352344,
            16.262607835302124,
            16.331800534221195,
            16.39557362485114,
            16.395906482954324,
            17.596058673552022,
            17.678528868076658,
            17.83461323505855,
            17.953303279348297,
            18.536722285996138,
            18.537062644521956,
            19.286313635684586,
            19.2864210956886,
            23.10120409892556,
            24.611657385270366,
            24.612324093827073,
            25.30867438805704,
            25.52425384949604,
            25.69729051000503,
            25.741131413600506,
            25.863495045871364
        ]
    },
    "born_effective_charge": {
        "avg_abs_trace": 3.1552675,
        "tensors": [
            [
                [
                    1.14698,
                    0.0,
                    0.08751
                ],
                [
                    1e-05,
                    1.30184,
                    -8e-05
                ],
                [
                    -0.15432,
                    0.0,
                    1.64544
                ]
            ],
            [
                [
                    1.14698,
                    0.0,
                    -0.08751
                ],
                [
                    1e-05,
                    1.30184,
                    8e-05
                ],
                [
                    0.15436,
                    0.0,
                    1.64528
                ]
            ],
            [
                [
                    1.14704,
                    0.0,
                    0.0876
                ],
                [
                    -1e-05,
                    1.30184,
                    8e-05
                ],
                [
                    -0.15436,
                    -0.0,
                    1.64528
                ]
            ],
            [
                [
                    1.14704,
                    0.0,
                    -0.0876
                ],
                [
                    -1e-05,
                    1.30184,
                    -8e-05
                ],
                [
                    0.15432,
                    0.0,
                    1.64544
                ]
            ],
            [
                [
                    6.43925,
                    0.0,
                    -0.70912
                ],
                [
                    0.00052,
                    5.37558,
                    0.00102
                ],
                [
                    0.34573,
                    0.0,
                    3.45325
                ]
            ],
            [
                [
                    6.43925,
                    0.0,
                    0.70912
                ],
                [
                    0.00052,
                    5.37558,
                    -0.00102
                ],
                [
                    -0.34533,
                    0.0,
                    3.45306
                ]
            ],
            [
                [
                    6.43858,
                    -0.0,
                    -0.71041
                ],
                [
                    -0.00052,
                    5.37558,
                    -0.00102
                ],
                [
                    0.34533,
                    -0.0,
                    3.45306
                ]
            ],
            [
                [
                    6.43858,
                    -0.0,
                    0.71041
                ],
                [
                    -0.00052,
                    5.37558,
                    0.00102
                ],
                [
                    -0.34573,
                    0.0,
                    3.45325
                ]
            ],
            [
                [
                    7.82568,
                    0.0,
                    0.417
                ],
                [
                    -0.00011,
                    6.46072,
                    0.00111
                ],
                [
                    -0.46575,
                    0.0,
                    4.21446
                ]
            ],
            [
                [
                    7.82568,
                    0.0,
                    -0.417
                ],
                [
                    -0.00011,
                    6.46072,
                    -0.00111
                ],
                [
                    0.46725,
                    0.0,
                    4.21407
                ]
            ],
            [
                [
                    7.82706,
                    0.0,
                    0.41639
                ],
                [
                    0.00011,
                    6.46072,
                    -0.00111
                ],
                [
                    -0.46725,
                    0.0,
                    4.21407
                ]
            ],
            [
                [
                    7.82706,
                    0.0,
                    -0.41639
                ],
                [
                    0.00011,
                    6.46072,
                    0.00111
                ],
                [
                    0.46575,
                    0.0,
                    4.21446
                ]
            ],
            [
                [
                    -1.46363,
                    -0.0,
                    0.4777
                ],
                [
                    -0.00015,
                    -5.0582,
                    0.00226
                ],
                [
                    0.25108,
                    -0.0,
                    -1.54864
                ]
            ],
            [
                [
                    -1.46363,
                    -0.0,
                    -0.4777
                ],
                [
                    -0.00015,
                    -5.0582,
                    -0.00226
                ],
                [
                    -0.25125,
                    0.0,
                    -1.54863
                ]
            ],
            [
                [
                    -1.46356,
                    -0.0,
                    0.47766
                ],
                [
                    0.00015,
                    -5.0582,
                    -0.00226
                ],
                [
                    0.25125,
                    0.0,
                    -1.54863
                ]
            ],
            [
                [
                    -1.46356,
                    -0.0,
                    -0.47766
                ],
                [
                    0.00015,
                    -5.0582,
                    0.00226
                ],
                [
                    -0.25108,
                    0.0,
                    -1.54864
                ]
            ],
            [
                [
                    -1.33624,
                    0.0,
                    0.36515
                ],
                [
                    -5e-05,
                    -1.07067,
                    0.00018
                ],
                [
                    0.47315,
                    0.0,
                    -3.22586
                ]
            ],
            [
                [
                    -1.33624,
                    0.0,
                    -0.36515
                ],
                [
                    -5e-05,
                    -1.07067,
                    -0.00018
                ],
                [
                    -0.47302,
                    0.0,
                    -3.22509
                ]
            ],
            [
                [
                    -1.33632,
                    0.0,
                    0.3647
                ],
                [
                    5e-05,
                    -1.07067,
                    -0.00018
                ],
                [
                    0.47302,
                    0.0,
                    -3.22509
                ]
            ],
            [
                [
                    -1.33632,
                    0.0,
                    -0.3647
                ],
                [
                    5e-05,
                    -1.07067,
                    0.00018
                ],
                [
                    -0.47315,
                    0.0,
                    -3.22586
                ]
            ],
            [
                [
                    -4.31432,
                    0.0,
                    1.31856
                ],
                [
                    -0.00021,
                    -1.24334,
                    5e-05
                ],
                [
                    0.48383,
                    0.0,
                    -1.83483
                ]
            ],
            [
                [
                    -4.31432,
                    0.0,
                    -1.31856
                ],
                [
                    -0.00021,
                    -1.24334,
                    -5e-05
                ],
                [
                    -0.48368,
                    0.0,
                    -1.83476
                ]
            ],
            [
                [
                    -4.31457,
                    0.0,
                    1.32006
                ],
                [
                    0.00021,
                    -1.24334,
                    -5e-05
                ],
                [
                    0.48368,
                    0.0,
                    -1.83476
                ]
            ],
            [
                [
                    -4.31457,
                    0.0,
                    -1.32006
                ],
                [
                    0.00021,
                    -1.24334,
                    5e-05
                ],
                [
                    -0.48383,
                    0.0,
                    -1.83483
                ]
            ],
            [
                [
                    -6.17468,
                    0.0,
                    -2.08473
                ],
                [
                    0.00021,
                    -1.18949,
                    0.00038
                ],
                [
                    -1.14806,
                    0.0,
                    -1.26047
                ]
            ],
            [
                [
                    -6.17468,
                    0.0,
                    2.08473
                ],
                [
                    0.00021,
                    -1.18949,
                    -0.00038
                ],
                [
                    1.148,
                    0.0,
                    -1.26034
                ]
            ],
            [
                [
                    -6.17608,
                    -0.0,
                    -2.08404
                ],
                [
                    -0.00021,
                    -1.18949,
                    -0.00038
                ],
                [
                    -1.148,
                    0.0,
                    -1.26034
                ]
            ],
            [
                [
                    -6.17608,
                    -0.0,
                    2.08404
                ],
                [
                    -0.00021,
                    -1.18949,
                    0.00038
                ],
                [
                    1.14806,
                    0.0,
                    -1.26047
                ]
            ],
            [
                [
                    -2.12261,
                    -0.0,
                    0.05056
                ],
                [
                    0.00096,
                    -4.57644,
                    0.00206
                ],
                [
                    -0.09323,
                    0.0,
                    -1.44346
                ]
            ],
            [
                [
                    -2.12261,
                    -0.0,
                    -0.05056
                ],
                [
                    0.00096,
                    -4.57644,
                    -0.00206
                ],
                [
                    0.09317,
                    0.0,
                    -1.44347
                ]
            ],
            [
                [
                    -2.12257,
                    0.0,
                    0.0515
                ],
                [
                    -0.00096,
                    -4.57644,
                    -0.00206
                ],
                [
                    -0.09317,
                    0.0,
                    -1.44347
                ]
            ],
            [
                [
                    -2.12257,
                    0.0,
                    -0.0515
                ],
                [
                    -0.00096,
                    -4.57644,
                    0.00206
                ],
                [
                    0.09323,
                    0.0,
                    -1.44346
                ]
            ]
        ]
    },
    "band_gap": 3.0528,
    "is_direct": false,
    "formula": "RbTiNbO5"
}