{
    "mp_id": "mp-17037",
    "nelements": 4,
    "nsites": 30,
    "elements": [
        "O",
        "Rb",
        "Si",
        "Ti"
    ],
    "structure": {
        "@module": "pymatgen.core.structure",
        "@class": "Structure",
        "charge": null,
        "lattice": {
            "matrix": [
                [
                    6.91046092,
                    8.6e-07,
                    0.0
                ],
                [
                    -3.4552317,
                    5.98463478,
                    0.0
                ],
                [
                    0.0,
                    0.0,
                    10.05953486
                ]
            ],
            "a": 6.9104609200000535,
            "b": 6.910461601851973,
            "c": 10.05953486,
            "alpha": 90.0,
            "beta": 90.0,
            "gamma": 120.00000147716403,
            "volume": 416.02803605274937
        },
        "sites": [
            {
                "species": [
                    {
                        "element": "Rb",
                        "occu": 1
                    }
                ],
                "abc": [
                    0.333333,
                    0.666667,
                    0.44286044
                ],
                "xyz": [
                    -4.281897540536761e-06,
                    3.98975880154464,
                    4.454970034294939
                ],
                "label": "Rb",
                "properties": {}
            },
            {
                "species": [
                    {
                        "element": "Rb",
                        "occu": 1
                    }
                ],
                "abc": [
                    0.666667,
                    0.333333,
                    0.94286044
                ],
                "xyz": [
                    3.45523350189754,
                    1.99487683845536,
                    9.484737464294938
                ],
                "label": "Rb",
                "properties": {}
            },
            {
                "species": [
                    {
                        "element": "Rb",
                        "occu": 1
                    }
                ],
                "abc": [
                    0.666667,
                    0.333333,
                    0.55713956
                ],
                "xyz": [
                    3.45523350189754,
                    1.99487683845536,
                    5.604564825705061
                ],
                "label": "Rb",
                "properties": {}
            },
            {
                "species": [
                    {
                        "element": "Rb",
                        "occu": 1
                    }
                ],
                "abc": [
                    0.333333,
                    0.666667,
                    0.05713956
                ],
                "xyz": [
                    -4.281897540536761e-06,
                    3.98975880154464,
                    0.5747973957050616
                ],
                "label": "Rb",
                "properties": {}
            },
            {
                "species": [
                    {
                        "element": "Ti",
                        "occu": 1
                    }
                ],
                "abc": [
                    0.0,
                    0.0,
                    0.5
                ],
                "xyz": [
                    0.0,
                    0.0,
                    5.02976743
                ],
                "label": "Ti",
                "properties": {}
            },
            {
                "species": [
                    {
                        "element": "Ti",
                        "occu": 1
                    }
                ],
                "abc": [
                    0.0,
                    0.0,
                    0.0
                ],
                "xyz": [
                    0.0,
                    0.0,
                    0.0
                ],
                "label": "Ti",
                "properties": {}
            },
            {
                "species": [
                    {
                        "element": "Si",
                        "occu": 1
                    }
                ],
                "abc": [
                    0.62184866,
                    0.75641659,
                    0.75
                ],
                "xyz": [
                    1.683666282910465,
                    4.526877567472849,
                    7.544651145
                ],
                "label": "Si",
                "properties": {}
            },
            {
                "species": [
                    {
                        "element": "Si",
                        "occu": 1
                    }
                ],
                "abc": [
                    0.86543207,
                    0.62184866,
                    0.25
                ],
                "xyz": [
                    3.8319032960151818,
                    3.721537862803976,
                    2.514883715
                ],
                "label": "Si",
                "properties": {}
            },
            {
                "species": [
                    {
                        "element": "Si",
                        "occu": 1
                    }
                ],
                "abc": [
                    0.75641659,
                    0.13456793,
                    0.25
                ],
                "xyz": [
                    4.762223906895282,
                    0.8053405646688728,
                    2.514883715
                ],
                "label": "Si",
                "properties": {}
            },
            {
                "species": [
                    {
                        "element": "Si",
                        "occu": 1
                    }
                ],
                "abc": [
                    0.24358341,
                    0.86543207,
                    0.75
                ],
                "xyz": [
                    -1.3069946868952818,
                    5.179295075331127,
                    7.544651145
                ],
                "label": "Si",
                "properties": {}
            },
            {
                "species": [
                    {
                        "element": "Si",
                        "occu": 1
                    }
                ],
                "abc": [
                    0.13456793,
                    0.37815134,
                    0.75
                ],
                "xyz": [
                    -0.37667407601518244,
                    2.263097777196025,
                    7.544651145
                ],
                "label": "Si",
                "properties": {}
            },
            {
                "species": [
                    {
                        "element": "Si",
                        "occu": 1
                    }
                ],
                "abc": [
                    0.37815134,
                    0.24358341,
                    0.25
                ],
                "xyz": [
                    1.771562937089536,
                    1.4577580725271522,
                    2.514883715
                ],
                "label": "Si",
                "properties": {}
            },
            {
                "species": [
                    {
                        "element": "O",
                        "occu": 1
                    }
                ],
                "abc": [
                    0.24732906,
                    0.21819796,
                    0.38727787
                ],
                "xyz": [
                    0.9552332952430032,
                    1.3058353130440405,
                    3.8958352337715483
                ],
                "label": "O",
                "properties": {}
            },
            {
                "species": [
                    {
                        "element": "O",
                        "occu": 1
                    }
                ],
                "abc": [
                    0.0291321,
                    0.24732906,
                    0.88727787
                ],
                "xyz": [
                    -0.65326296987567,
                    1.480174119634313,
                    8.925602663771548
                ],
                "label": "O",
                "properties": {}
            },
            {
                "species": [
                    {
                        "element": "O",
                        "occu": 1
                    }
                ],
                "abc": [
                    0.21819796,
                    0.9708679,
                    0.88727787
                ],
                "xyz": [
                    -1.846725069188707,
                    5.810289988775808,
                    8.925602663771548
                ],
                "label": "O",
                "properties": {}
            },
            {
                "species": [
                    {
                        "element": "O",
                        "occu": 1
                    }
                ],
                "abc": [
                    0.78180204,
                    0.0291321,
                    0.38727787
                ],
                "xyz": [
                    5.301954289188707,
                    0.1743456512241924,
                    3.8958352337715483
                ],
                "label": "O",
                "properties": {}
            },
            {
                "species": [
                    {
                        "element": "O",
                        "occu": 1
                    }
                ],
                "abc": [
                    0.9708679,
                    0.75267094,
                    0.38727787
                ],
                "xyz": [
                    4.10849218987567,
                    4.5044615203656875,
                    3.8958352337715483
                ],
                "label": "O",
                "properties": {}
            },
            {
                "species": [
                    {
                        "element": "O",
                        "occu": 1
                    }
                ],
                "abc": [
                    0.75267094,
                    0.78180204,
                    0.88727787
                ],
                "xyz": [
                    2.4999959247569974,
                    4.678800326955959,
                    8.925602663771548
                ],
                "label": "O",
                "properties": {}
            },
            {
                "species": [
                    {
                        "element": "O",
                        "occu": 1
                    }
                ],
                "abc": [
                    0.75267094,
                    0.78180204,
                    0.61272213
                ],
                "xyz": [
                    2.4999959247569974,
                    4.678800326955959,
                    6.163699626228452
                ],
                "label": "O",
                "properties": {}
            },
            {
                "species": [
                    {
                        "element": "O",
                        "occu": 1
                    }
                ],
                "abc": [
                    0.9708679,
                    0.75267094,
                    0.11272213
                ],
                "xyz": [
                    4.10849218987567,
                    4.5044615203656875,
                    1.1339321962284519
                ],
                "label": "O",
                "properties": {}
            },
            {
                "species": [
                    {
                        "element": "O",
                        "occu": 1
                    }
                ],
                "abc": [
                    0.78180204,
                    0.0291321,
                    0.11272213
                ],
                "xyz": [
                    5.301954289188707,
                    0.1743456512241924,
                    1.1339321962284519
                ],
                "label": "O",
                "properties": {}
            },
            {
                "species": [
                    {
                        "element": "O",
                        "occu": 1
                    }
                ],
                "abc": [
                    0.21819796,
                    0.9708679,
                    0.61272213
                ],
                "xyz": [
                    -1.846725069188707,
                    5.810289988775808,
                    6.163699626228452
                ],
                "label": "O",
                "properties": {}
            },
            {
                "species": [
                    {
                        "element": "O",
                        "occu": 1
                    }
                ],
                "abc": [
                    0.0291321,
                    0.24732906,
                    0.61272213
                ],
                "xyz": [
                    -0.65326296987567,
                    1.480174119634313,
                    6.163699626228452
                ],
                "label": "O",
                "properties": {}
            },
            {
                "species": [
                    {
                        "element": "O",
                        "occu": 1
                    }
                ],
                "abc": [
                    0.24732906,
                    0.21819796,
                    0.11272213
                ],
                "xyz": [
                    0.9552332952430032,
                    1.3058353130440405,
                    1.1339321962284519
                ],
                "label": "O",
                "properties": {}
            },
            {
                "species": [
                    {
                        "element": "O",
                        "occu": 1
                    }
                ],
                "abc": [
                    0.49316396,
                    0.08320214,
                    0.25
                ],
                "xyz": [
                    3.1205076010966057,
                    0.4979348449354348,
                    2.514883715
                ],
                "label": "O",
                "properties": {}
            },
            {
                "species": [
                    {
                        "element": "O",
                        "occu": 1
                    }
                ],
                "abc": [
                    0.40996183,
                    0.49316396,
                    0.75
                ],
                "xyz": [
                    1.1290294570171517,
                    2.951406539825703,
                    7.544651145
                ],
                "label": "O",
                "properties": {}
            },
            {
                "species": [
                    {
                        "element": "O",
                        "occu": 1
                    }
                ],
                "abc": [
                    0.08320214,
                    0.59003817,
                    0.75
                ],
                "xyz": [
                    -1.4637534522636202,
                    3.531163025263393,
                    7.544651145
                ],
                "label": "O",
                "properties": {}
            },
            {
                "species": [
                    {
                        "element": "O",
                        "occu": 1
                    }
                ],
                "abc": [
                    0.91679786,
                    0.40996183,
                    0.25
                ],
                "xyz": [
                    4.9189826722636205,
                    2.453472614736607,
                    2.514883715
                ],
                "label": "O",
                "properties": {}
            },
            {
                "species": [
                    {
                        "element": "O",
                        "occu": 1
                    }
                ],
                "abc": [
                    0.59003817,
                    0.50683604,
                    0.25
                ],
                "xyz": [
                    2.3261997629828484,
                    3.0332291001742977,
                    2.514883715
                ],
                "label": "O",
                "properties": {}
            },
            {
                "species": [
                    {
                        "element": "O",
                        "occu": 1
                    }
                ],
                "abc": [
                    0.50683604,
                    0.91679786,
                    0.75
                ],
                "xyz": [
                    0.33472161890339525,
                    5.486700795064565,
                    7.544651145
                ],
                "label": "O",
                "properties": {}
            }
        ]
    },
    "spacegroup": {
        "source": "spglib",
        "symbol": "P6_3/m",
        "number": 176,
        "point_group": "6/m",
        "crystal_system": "hexagonal",
        "hall": "-P 6c"
    },
    "dielectric": {
        "epsilon_ionic": [
            [
                5.88586277,
                -0.00012583,
                -0.0
            ],
            [
                -0.00012583,
                5.88569174,
                0.0
            ],
            [
                -0.0,
                0.0,
                6.3232529
            ]
        ],
        "epsilon_ionic_avg": 6.03160247,
        "epsilon_ionic_eig": [
            5.885929393108721,
            5.88562511689128,
            6.3232529
        ],
        "epsilon_electronic": [
            [
                3.14495402,
                -1.7e-06,
                0.0
            ],
            [
                1.17e-06,
                3.14495425,
                0.0
            ],
            [
                0.0,
                0.0,
                3.46625801
            ]
        ],
        "epsilon_electronic_avg": 3.252055426666667,
        "epsilon_electronic_eig": [
            3.1449541350000003,
            3.1449541350000003,
            3.46625801
        ]
    },
    "phonon": {
        "lowest_freq": -0.0662378655557422,
        "frequency": [
            -0.0662378655557422,
            -0.06031495142659902,
            -0.060314945956310394,
            2.010937863769687,
            2.010938046072774,
            2.1012130468575587,
            2.238721903166035,
            2.2387220614617918,
            2.4451661545276027,
            2.4451663794204057,
            2.454975787386834,
            2.614645956579371,
            2.6901502676541473,
            2.7850675211811446,
            2.785067775667021,
            3.045667602103915,
            3.045667702410383,
            4.0456727624422735,
            4.198020844073804,
            4.198020980885965,
            4.6957036482898245,
            4.69570405426113,
            5.17649932650453,
            5.298148535904311,
            5.5448274123195445,
            5.962416220795051,
            5.962416302775282,
            6.286069554032502,
            6.286069573472323,
            6.600768833410155,
            6.6007691111052225,
            7.044464048354452,
            7.04446441264069,
            7.59938889790121,
            7.984985042325289,
            7.984985424918563,
            9.69970177223219,
            9.887565065807335,
            9.887565152320086,
            9.890290348617567,
            10.090735624604033,
            10.132925794856698,
            10.48746973139783,
            10.503568883684615,
            10.737501981109082,
            10.73750234529081,
            10.756708250590062,
            10.756708614121541,
            10.759303029840448,
            10.759303291065686,
            10.99226187924804,
            10.992262012651048,
            12.208788066038796,
            12.208788206167439,
            13.499463057371191,
            14.064422351182364,
            14.064422855120847,
            14.09535973300823,
            14.807221300239656,
            14.807221547821687,
            15.904673997961924,
            16.20482510390048,
            16.676356434106456,
            16.67635709360338,
            17.088610244327448,
            17.361269727342847,
            18.198082901414825,
            19.25871651055657,
            21.044267828442955,
            21.04426835105585,
            21.16222405836346,
            21.16222457806336,
            27.038915291145308,
            27.0389157882809,
            27.15714905816608,
            27.157149508139916,
            27.6988910739735,
            27.746401380221727,
            28.30854148310865,
            28.700870076082285,
            28.70087028896793,
            28.870798553224684,
            28.870798722530793,
            29.576711771313203,
            29.576713134751472,
            29.80640378076477,
            29.806405133696213,
            30.017726217289805,
            31.18180897082985,
            34.00759957537265
        ]
    },
    "born_effective_charge": {
        "avg_abs_trace": 2.4779257777777777,
        "tensors": [
            [
                [
                    1.39427,
                    0.01412,
                    -0.00029
                ],
                [
                    -0.01408,
                    1.39435,
                    0.00023
                ],
                [
                    0.0,
                    -0.0,
                    1.08407
                ]
            ],
            [
                [
                    1.39424,
                    0.0141,
                    0.00034
                ],
                [
                    -0.0142,
                    1.39424,
                    -0.00024
                ],
                [
                    0.0,
                    -0.0,
                    1.08407
                ]
            ],
            [
                [
                    1.39424,
                    0.0141,
                    -0.00034
                ],
                [
                    -0.0142,
                    1.39424,
                    0.00024
                ],
                [
                    0.0,
                    -0.0,
                    1.08414
                ]
            ],
            [
                [
                    1.39427,
                    0.01412,
                    0.00029
                ],
                [
                    -0.01408,
                    1.39435,
                    -0.00023
                ],
                [
                    0.0,
                    -0.0,
                    1.08414
                ]
            ],
            [
                [
                    4.79303,
                    0.47835,
                    -0.00105
                ],
                [
                    -0.47857,
                    4.79258,
                    0.00121
                ],
                [
                    0.0,
                    -0.0,
                    6.16145
                ]
            ],
            [
                [
                    4.79303,
                    0.47835,
                    0.00105
                ],
                [
                    -0.47857,
                    4.79258,
                    -0.00121
                ],
                [
                    0.0,
                    -0.0,
                    6.16145
                ]
            ],
            [
                [
                    3.87621,
                    0.14226,
                    0.0
                ],
                [
                    0.82214,
                    2.97424,
                    0.0
                ],
                [
                    -5e-05,
                    -2e-05,
                    3.9041
                ]
            ],
            [
                [
                    2.78138,
                    -0.19266,
                    0.0
                ],
                [
                    0.4899,
                    4.06878,
                    0.0
                ],
                [
                    -1e-05,
                    -5e-05,
                    3.9041
                ]
            ],
            [
                [
                    3.61651,
                    -0.97125,
                    0.0
                ],
                [
                    -0.29028,
                    3.23152,
                    0.0
                ],
                [
                    -4e-05,
                    3e-05,
                    3.9041
                ]
            ],
            [
                [
                    3.61678,
                    -0.9709,
                    0.0
                ],
                [
                    -0.29014,
                    3.23139,
                    0.0
                ],
                [
                    4e-05,
                    -3e-05,
                    3.9041
                ]
            ],
            [
                [
                    2.78174,
                    -0.19285,
                    0.0
                ],
                [
                    0.48941,
                    4.06872,
                    0.0
                ],
                [
                    1e-05,
                    5e-05,
                    3.9041
                ]
            ],
            [
                [
                    3.87626,
                    0.14222,
                    0.0
                ],
                [
                    0.82236,
                    2.97376,
                    0.0
                ],
                [
                    5e-05,
                    2e-05,
                    3.9041
                ]
            ],
            [
                [
                    -1.88987,
                    -0.64547,
                    0.89806
                ],
                [
                    -0.66362,
                    -1.79655,
                    0.70888
                ],
                [
                    0.97777,
                    0.78833,
                    -2.66411
                ]
            ],
            [
                [
                    -1.25363,
                    0.29643,
                    -0.1649
                ],
                [
                    0.27781,
                    -2.43336,
                    1.13243
                ],
                [
                    -0.19383,
                    1.24094,
                    -2.66411
                ]
            ],
            [
                [
                    -2.3866,
                    0.37687,
                    1.06326
                ],
                [
                    0.35804,
                    -1.29984,
                    -0.42308
                ],
                [
                    1.1716,
                    -0.45261,
                    -2.66411
                ]
            ],
            [
                [
                    -2.38656,
                    0.3765,
                    -1.06247
                ],
                [
                    0.35815,
                    -1.29982,
                    0.42332
                ],
                [
                    -1.1716,
                    0.45261,
                    -2.66411
                ]
            ],
            [
                [
                    -1.2533,
                    0.29648,
                    0.16525
                ],
                [
                    0.27754,
                    -2.43374,
                    -1.13301
                ],
                [
                    0.19383,
                    -1.24094,
                    -2.66411
                ]
            ],
            [
                [
                    -1.89058,
                    -0.64511,
                    -0.89921
                ],
                [
                    -0.66326,
                    -1.79668,
                    -0.70831
                ],
                [
                    -0.97777,
                    -0.78833,
                    -2.66411
                ]
            ],
            [
                [
                    -1.89058,
                    -0.64511,
                    0.89921
                ],
                [
                    -0.66326,
                    -1.79668,
                    0.70831
                ],
                [
                    0.97779,
                    0.78837,
                    -2.66411
                ]
            ],
            [
                [
                    -1.2533,
                    0.29648,
                    -0.16525
                ],
                [
                    0.27754,
                    -2.43374,
                    1.13301
                ],
                [
                    -0.19385,
                    1.24098,
                    -2.66411
                ]
            ],
            [
                [
                    -2.38656,
                    0.3765,
                    1.06247
                ],
                [
                    0.35815,
                    -1.29982,
                    -0.42332
                ],
                [
                    1.17165,
                    -0.45261,
                    -2.66411
                ]
            ],
            [
                [
                    -2.3866,
                    0.37687,
                    -1.06326
                ],
                [
                    0.35804,
                    -1.29984,
                    0.42308
                ],
                [
                    -1.17165,
                    0.45261,
                    -2.66411
                ]
            ],
            [
                [
                    -1.25363,
                    0.29643,
                    0.1649
                ],
                [
                    0.27781,
                    -2.43336,
                    -1.13243
                ],
                [
                    0.19385,
                    -1.24098,
                    -2.66411
                ]
            ],
            [
                [
                    -1.88987,
                    -0.64547,
                    -0.89806
                ],
                [
                    -0.66362,
                    -1.79655,
                    -0.70888
                ],
                [
                    -0.97779,
                    -0.78837,
                    -2.66411
                ]
            ],
            [
                [
                    -3.13317,
                    0.43153,
                    0.0
                ],
                [
                    0.12473,
                    -1.39701,
                    0.0
                ],
                [
                    2e-05,
                    7e-05,
                    -1.35244
                ]
            ],
            [
                [
                    -2.07176,
                    -0.73813,
                    0.0
                ],
                [
                    -1.04385,
                    -2.45853,
                    0.0
                ],
                [
                    -5e-05,
                    5e-05,
                    -1.35244
                ]
            ],
            [
                [
                    -1.59033,
                    0.76583,
                    0.0
                ],
                [
                    0.46002,
                    -2.93996,
                    0.0
                ],
                [
                    7e-05,
                    2e-05,
                    -1.35244
                ]
            ],
            [
                [
                    -1.59036,
                    0.76614,
                    0.0
                ],
                [
                    0.45945,
                    -2.94004,
                    0.0
                ],
                [
                    -7e-05,
                    -2e-05,
                    -1.35244
                ]
            ],
            [
                [
                    -2.07188,
                    -0.73762,
                    0.0
                ],
                [
                    -1.04432,
                    -2.45833,
                    0.0
                ],
                [
                    5e-05,
                    -5e-05,
                    -1.35244
                ]
            ],
            [
                [
                    -3.13338,
                    0.43088,
                    0.0
                ],
                [
                    0.12496,
                    -1.39692,
                    0.0
                ],
                [
                    -2e-05,
                    -7e-05,
                    -1.35244
                ]
            ]
        ]
    },
    "band_gap": 3.4882,
    "is_direct": true,
    "formula": "Rb2Ti(SiO3)3"
}