{
    "mp_id": "mp-1019746",
    "nelements": 4,
    "nsites": 35,
    "elements": [
        "Ca",
        "K",
        "O",
        "Si"
    ],
    "structure": {
        "@module": "pymatgen.core.structure",
        "@class": "Structure",
        "charge": null,
        "lattice": {
            "matrix": [
                [
                    6.81193215,
                    -3.174e-05,
                    -0.00148759
                ],
                [
                    -2.35239485,
                    6.73088323,
                    0.00106179
                ],
                [
                    -2.9972754,
                    -2.41508642,
                    10.53113593
                ]
            ],
            "a": 6.811932312503924,
            "b": 7.130115827502366,
            "c": 11.212543253680252,
            "alpha": 96.60350486764261,
            "beta": 105.51666225141159,
            "gamma": 109.26441849705137,
            "volume": 482.8341702862389
        },
        "sites": [
            {
                "species": [
                    {
                        "element": "K",
                        "occu": 1
                    }
                ],
                "abc": [
                    0.73768502,
                    0.70972783,
                    0.43017499
                ],
                "xyz": [
                    2.0661472968954717,
                    3.7381619581161196,
                    4.529887502430104
                ],
                "label": "K",
                "properties": {}
            },
            {
                "species": [
                    {
                        "element": "K",
                        "occu": 1
                    }
                ],
                "abc": [
                    0.26231498,
                    0.29027217,
                    0.56982501
                ],
                "xyz": [
                    -0.6038853968954716,
                    0.5776031118838796,
                    6.000822627569894
                ],
                "label": "K",
                "properties": {}
            },
            {
                "species": [
                    {
                        "element": "Ca",
                        "occu": 1
                    }
                ],
                "abc": [
                    0.66305778,
                    0.78595398,
                    0.81803765
                ],
                "xyz": [
                    0.21594638938181454,
                    3.3145117985161052,
                    8.614713847961237
                ],
                "label": "Ca",
                "properties": {}
            },
            {
                "species": [
                    {
                        "element": "Ca",
                        "occu": 1
                    }
                ],
                "abc": [
                    0.33694222,
                    0.21404602,
                    0.18196235
                ],
                "xyz": [
                    1.246315510618186,
                    1.0012532714838949,
                    1.9159962820387613
                ],
                "label": "Ca",
                "properties": {}
            },
            {
                "species": [
                    {
                        "element": "Ca",
                        "occu": 1
                    }
                ],
                "abc": [
                    0.36759352,
                    0.73718488,
                    0.03998991
                ],
                "xyz": [
                    0.6500114283185856,
                    4.865314590205215,
                    0.42137508512778465
                ],
                "label": "Ca",
                "properties": {}
            },
            {
                "species": [
                    {
                        "element": "Ca",
                        "occu": 1
                    }
                ],
                "abc": [
                    0.63240648,
                    0.26281512,
                    0.96001009
                ],
                "xyz": [
                    0.8122504716814136,
                    -0.5495495202052159,
                    10.109335044872216
                ],
                "label": "Ca",
                "properties": {}
            },
            {
                "species": [
                    {
                        "element": "Si",
                        "occu": 1
                    }
                ],
                "abc": [
                    0.10159249,
                    0.24006366,
                    0.88758179
                ],
                "xyz": [
                    -2.5330104332815635,
                    -0.5277494889875025,
                    9.347348248704067
                ],
                "label": "Si",
                "properties": {}
            },
            {
                "species": [
                    {
                        "element": "Si",
                        "occu": 1
                    }
                ],
                "abc": [
                    0.89840751,
                    0.75993634,
                    0.11241821
                ],
                "xyz": [
                    3.995272333281563,
                    4.843514558987502,
                    1.183361881295933
                ],
                "label": "Si",
                "properties": {}
            },
            {
                "species": [
                    {
                        "element": "Si",
                        "occu": 1
                    }
                ],
                "abc": [
                    0.17542237,
                    0.90317422,
                    0.74529364
                ],
                "xyz": [
                    -3.163507394697028,
                    4.279206094383937,
                    7.84948665539615
                ],
                "label": "Si",
                "properties": {}
            },
            {
                "species": [
                    {
                        "element": "Si",
                        "occu": 1
                    }
                ],
                "abc": [
                    0.82457763,
                    0.09682578,
                    0.25470636
                ],
                "xyz": [
                    4.625769294697027,
                    0.03655897561606192,
                    2.6812234746038497
                ],
                "label": "Si",
                "properties": {}
            },
            {
                "species": [
                    {
                        "element": "Si",
                        "occu": 1
                    }
                ],
                "abc": [
                    0.66387114,
                    0.20226377,
                    0.47149197
                ],
                "xyz": [
                    2.6332496281550286,
                    0.22269889237354623,
                    4.964573219552677
                ],
                "label": "Si",
                "properties": {}
            },
            {
                "species": [
                    {
                        "element": "Si",
                        "occu": 1
                    }
                ],
                "abc": [
                    0.33612886,
                    0.79773623,
                    0.52850803
                ],
                "xyz": [
                    -1.1709877281550287,
                    4.093066177626453,
                    5.566136910447322
                ],
                "label": "Si",
                "properties": {}
            },
            {
                "species": [
                    {
                        "element": "Si",
                        "occu": 1
                    }
                ],
                "abc": [
                    0.87196541,
                    0.47260282,
                    0.74635815
                ],
                "xyz": [
                    2.590979847618945,
                    1.378487286885272,
                    7.859203808037316
                ],
                "label": "Si",
                "properties": {}
            },
            {
                "species": [
                    {
                        "element": "Si",
                        "occu": 1
                    }
                ],
                "abc": [
                    0.12803459,
                    0.52739718,
                    0.25364185
                ],
                "xyz": [
                    -1.1287179476189446,
                    2.9372777831147276,
                    2.6715063219626844
                ],
                "label": "Si",
                "properties": {}
            },
            {
                "species": [
                    {
                        "element": "O",
                        "occu": 1
                    }
                ],
                "abc": [
                    0.5,
                    0.0,
                    0.5
                ],
                "xyz": [
                    1.9073283749999999,
                    -1.20755908,
                    5.26482417
                ],
                "label": "O",
                "properties": {}
            },
            {
                "species": [
                    {
                        "element": "O",
                        "occu": 1
                    }
                ],
                "abc": [
                    0.84667239,
                    0.34803697,
                    0.60725411
                ],
                "xyz": [
                    3.1286466926688403,
                    0.8759981768611682,
                    6.394185617254908
                ],
                "label": "O",
                "properties": {}
            },
            {
                "species": [
                    {
                        "element": "O",
                        "occu": 1
                    }
                ],
                "abc": [
                    0.15332761,
                    0.65196303,
                    0.39274589
                ],
                "xyz": [
                    -1.66638479266884,
                    3.439766893138832,
                    4.136524512745091
                ],
                "label": "O",
                "properties": {}
            },
            {
                "species": [
                    {
                        "element": "O",
                        "occu": 1
                    }
                ],
                "abc": [
                    0.39209439,
                    0.91353838,
                    0.85181768
                ],
                "xyz": [
                    -2.0312147768627766,
                    4.091694405543523,
                    8.970994485880123
                ],
                "label": "O",
                "properties": {}
            },
            {
                "species": [
                    {
                        "element": "O",
                        "occu": 1
                    }
                ],
                "abc": [
                    0.60790561,
                    0.08646162,
                    0.14818232
                ],
                "xyz": [
                    3.4934766768627763,
                    0.22407066445647672,
                    1.5597156441198774
                ],
                "label": "O",
                "properties": {}
            },
            {
                "species": [
                    {
                        "element": "O",
                        "occu": 1
                    }
                ],
                "abc": [
                    0.87634974,
                    0.12320683,
                    0.9134328
                ],
                "xyz": [
                    2.941994195180195,
                    -1.376756180334863,
                    9.618312150390803
                ],
                "label": "O",
                "properties": {}
            },
            {
                "species": [
                    {
                        "element": "O",
                        "occu": 1
                    }
                ],
                "abc": [
                    0.12365026,
                    0.87679317,
                    0.0865672
                ],
                "xyz": [
                    -1.4797322951801954,
                    5.692521250334863,
                    0.9123979796091969
                ],
                "label": "O",
                "properties": {}
            },
            {
                "species": [
                    {
                        "element": "O",
                        "occu": 1
                    }
                ],
                "abc": [
                    0.66785413,
                    0.69690328,
                    0.00210571
                ],
                "xyz": [
                    2.903673940054637,
                    4.68566793096845,
                    0.021921990047584796
                ],
                "label": "O",
                "properties": {}
            },
            {
                "species": [
                    {
                        "element": "O",
                        "occu": 1
                    }
                ],
                "abc": [
                    0.33214587,
                    0.30309672,
                    0.99789429
                ],
                "xyz": [
                    -1.441412040054637,
                    -0.36990286096845004,
                    10.508788139952415
                ],
                "label": "O",
                "properties": {}
            },
            {
                "species": [
                    {
                        "element": "O",
                        "occu": 1
                    }
                ],
                "abc": [
                    0.116972,
                    0.10840176,
                    0.75969201
                ],
                "xyz": [
                    -1.7352045876546898,
                    -1.1050859809382994,
                    8.00036091577219
                ],
                "label": "O",
                "properties": {}
            },
            {
                "species": [
                    {
                        "element": "O",
                        "occu": 1
                    }
                ],
                "abc": [
                    0.883028,
                    0.89159824,
                    0.24030799
                ],
                "xyz": [
                    3.19746648765469,
                    5.420851050938299,
                    2.53034921422781
                ],
                "label": "O",
                "properties": {}
            },
            {
                "species": [
                    {
                        "element": "O",
                        "occu": 1
                    }
                ],
                "abc": [
                    0.09138096,
                    0.45932859,
                    0.84901211
                ],
                "xyz": [
                    -3.0027644218569916,
                    1.0412465857823285,
                    8.941413709727401
                ],
                "label": "O",
                "properties": {}
            },
            {
                "species": [
                    {
                        "element": "O",
                        "occu": 1
                    }
                ],
                "abc": [
                    0.90861904,
                    0.54067141,
                    0.15098789
                ],
                "xyz": [
                    4.465026321856992,
                    3.274518484217671,
                    1.589296420272598
                ],
                "label": "O",
                "properties": {}
            },
            {
                "species": [
                    {
                        "element": "O",
                        "occu": 1
                    }
                ],
                "abc": [
                    0.95029448,
                    0.71875613,
                    0.74413224
                ],
                "xyz": [
                    2.552174044362705,
                    3.040689752021724,
                    7.8359072888411525
                ],
                "label": "O",
                "properties": {}
            },
            {
                "species": [
                    {
                        "element": "O",
                        "occu": 1
                    }
                ],
                "abc": [
                    0.04970552,
                    0.28124387,
                    0.25586776
                ],
                "xyz": [
                    -1.0899121443627056,
                    1.2750753179782761,
                    2.694802841158847
                ],
                "label": "O",
                "properties": {}
            },
            {
                "species": [
                    {
                        "element": "O",
                        "occu": 1
                    }
                ],
                "abc": [
                    0.46967894,
                    0.68533565,
                    0.60978084
                ],
                "xyz": [
                    -0.2404400931408177,
                    3.140225900036401,
                    6.4217139063950395
                ],
                "label": "O",
                "properties": {}
            },
            {
                "species": [
                    {
                        "element": "O",
                        "occu": 1
                    }
                ],
                "abc": [
                    0.53032106,
                    0.31466435,
                    0.39021916
                ],
                "xyz": [
                    1.7027019931408178,
                    1.1755391699635984,
                    4.10899622360496
                ],
                "label": "O",
                "properties": {}
            },
            {
                "species": [
                    {
                        "element": "O",
                        "occu": 1
                    }
                ],
                "abc": [
                    0.34333006,
                    0.58536272,
                    0.21292829
                ],
                "xyz": [
                    0.3235321002843706,
                    3.425756996606259,
                    2.2424875632509726
                ],
                "label": "O",
                "properties": {}
            },
            {
                "species": [
                    {
                        "element": "O",
                        "occu": 1
                    }
                ],
                "abc": [
                    0.65666994,
                    0.41463728,
                    0.78707171
                ],
                "xyz": [
                    1.1387297997156285,
                    0.8900080733937403,
                    8.288222566749026
                ],
                "label": "O",
                "properties": {}
            },
            {
                "species": [
                    {
                        "element": "O",
                        "occu": 1
                    }
                ],
                "abc": [
                    0.18274697,
                    0.8754508,
                    0.59870866
                ],
                "xyz": [
                    -2.6090407314752584,
                    4.446618153718859,
                    6.305739973267983
                ],
                "label": "O",
                "properties": {}
            },
            {
                "species": [
                    {
                        "element": "O",
                        "occu": 1
                    }
                ],
                "abc": [
                    0.81725303,
                    0.1245492,
                    0.40129134
                ],
                "xyz": [
                    4.071302631475258,
                    -0.13085308371885918,
                    4.224970156732017
                ],
                "label": "O",
                "properties": {}
            }
        ]
    },
    "spacegroup": {
        "source": "spglib",
        "symbol": "P-1",
        "number": 2,
        "point_group": "-1",
        "crystal_system": "triclinic",
        "hall": "-P 1"
    },
    "dielectric": {
        "epsilon_ionic": [
            [
                4.08735173,
                -0.53693814,
                -0.53710174
            ],
            [
                -0.53693814,
                5.81120184,
                0.26938947
            ],
            [
                -0.53710174,
                0.26938947,
                4.42843698
            ]
        ],
        "epsilon_ionic_avg": 4.775663516666669,
        "epsilon_ionic_eig": [
            6.07137799307403,
            3.655012422933157,
            4.6006001339928195
        ],
        "epsilon_electronic": [
            [
                2.69309869,
                -0.01654806,
                -0.01742204
            ],
            [
                -0.01655042,
                2.67328509,
                0.00499536
            ],
            [
                -0.01742266,
                0.00499577,
                2.69213359
            ]
        ],
        "epsilon_electronic_avg": 2.6861724566666667,
        "epsilon_electronic_eig": [
            2.71579597784464,
            2.663053918350679,
            2.679667473804682
        ]
    },
    "phonon": {
        "lowest_freq": -0.1368172394996037,
        "frequency": [
            -0.1368172394996037,
            -0.0937432502050742,
            -0.06837913813221422,
            1.9806375283896118,
            2.218320983568439,
            2.2413441469869375,
            2.372637716708295,
            2.6513176791136264,
            2.66004515871201,
            3.0745005185616527,
            3.090944700688578,
            3.1757111276755388,
            3.2246834469373833,
            3.4438713813012125,
            3.544804655777298,
            3.6952907407055102,
            3.975174815796364,
            4.4945775114736435,
            4.547738740694715,
            4.564889354262277,
            4.85918663047451,
            4.984506255734854,
            5.173921895521458,
            5.206921543327313,
            5.250012244773239,
            5.443622521556772,
            5.638265290380163,
            5.707458127682842,
            5.930850740199434,
            5.986941629579409,
            6.2944083523510255,
            6.553593382230747,
            6.595584692848032,
            6.596875085014527,
            7.0735281184149095,
            7.1462815971607245,
            7.239337888078776,
            7.3498606933766055,
            7.75703650968305,
            8.035159342115875,
            8.039599129158715,
            8.233752567169295,
            8.313015401780131,
            8.587756824755497,
            8.962940351045217,
            9.045681811519575,
            9.153391826625905,
            9.435787802754042,
            9.789347998071001,
            9.951442739725355,
            10.154650334101802,
            10.46107023922505,
            10.608222800431877,
            10.872905548684324,
            11.027018866434993,
            11.466322612272913,
            11.480733291638723,
            11.817348590971916,
            11.840663316653819,
            12.164656452306382,
            12.650733424910008,
            13.04289099152311,
            13.076142354707542,
            13.483332136785595,
            13.741905105886666,
            13.988670680165008,
            14.070585558735031,
            14.085871646409615,
            14.590708855965838,
            14.670360350082035,
            15.067161049928934,
            15.438229107648974,
            15.491784998424631,
            16.803318207279574,
            17.588056234720217,
            18.621235904440738,
            19.31362684875433,
            20.08133557401476,
            20.527089769716163,
            20.856040163612306,
            21.7961935879939,
            22.354285282047726,
            22.417300834585298,
            22.677667611771795,
            26.78519994583541,
            26.86171702705812,
            27.50524548916826,
            27.568228360644696,
            28.635637737003712,
            28.665088262141516,
            29.25483165817835,
            29.424178399879047,
            29.581710829199274,
            29.689619045007355,
            30.226301980511657,
            30.290291894721758,
            30.62539733431039,
            30.677469271126824,
            30.869503838651717,
            31.107504116024153,
            31.240052812317273,
            31.61089987263911,
            31.90979672425977,
            32.58080975288472,
            33.78451861783155
        ]
    },
    "born_effective_charge": {
        "avg_abs_trace": 2.079115619047619,
        "tensors": [
            [
                [
                    1.20773,
                    0.02488,
                    0.0479
                ],
                [
                    0.037,
                    1.25675,
                    -0.04033
                ],
                [
                    0.02108,
                    -0.04917,
                    1.2063
                ]
            ],
            [
                [
                    1.20771,
                    0.02488,
                    0.04791
                ],
                [
                    0.037,
                    1.25675,
                    -0.04033
                ],
                [
                    0.02108,
                    -0.04917,
                    1.20629
                ]
            ],
            [
                [
                    2.27081,
                    -0.19918,
                    0.02776
                ],
                [
                    -0.20871,
                    2.19167,
                    0.04221
                ],
                [
                    0.01065,
                    0.02588,
                    2.53207
                ]
            ],
            [
                [
                    2.27082,
                    -0.19925,
                    0.0278
                ],
                [
                    -0.20861,
                    2.19159,
                    0.04223
                ],
                [
                    0.01065,
                    0.02588,
                    2.53206
                ]
            ],
            [
                [
                    2.6027,
                    0.03465,
                    -0.19427
                ],
                [
                    0.07071,
                    2.41982,
                    -0.01549
                ],
                [
                    -0.13048,
                    0.00786,
                    2.18135
                ]
            ],
            [
                [
                    2.60279,
                    0.03469,
                    -0.19419
                ],
                [
                    0.07083,
                    2.41987,
                    -0.01548
                ],
                [
                    -0.13041,
                    0.00785,
                    2.18134
                ]
            ],
            [
                [
                    3.19222,
                    -0.23784,
                    -0.03765
                ],
                [
                    -0.22348,
                    2.90983,
                    0.15032
                ],
                [
                    0.17251,
                    -0.10038,
                    2.64641
                ]
            ],
            [
                [
                    3.1922,
                    -0.23783,
                    -0.03768
                ],
                [
                    -0.22348,
                    2.90987,
                    0.15027
                ],
                [
                    0.17255,
                    -0.10041,
                    2.64641
                ]
            ],
            [
                [
                    3.13511,
                    -0.04498,
                    -0.23205
                ],
                [
                    0.17676,
                    3.05252,
                    0.04356
                ],
                [
                    -0.18018,
                    0.17416,
                    3.06395
                ]
            ],
            [
                [
                    3.13511,
                    -0.04499,
                    -0.23205
                ],
                [
                    0.17673,
                    3.05254,
                    0.04357
                ],
                [
                    -0.18014,
                    0.17414,
                    3.06395
                ]
            ],
            [
                [
                    2.90715,
                    0.09274,
                    -0.11835
                ],
                [
                    0.29655,
                    3.09178,
                    -0.00652
                ],
                [
                    -0.1407,
                    0.03655,
                    3.53817
                ]
            ],
            [
                [
                    2.90712,
                    0.09273,
                    -0.11837
                ],
                [
                    0.29654,
                    3.09182,
                    -0.00653
                ],
                [
                    -0.1407,
                    0.03652,
                    3.53817
                ]
            ],
            [
                [
                    2.81146,
                    0.1467,
                    0.1406
                ],
                [
                    -0.28595,
                    3.14612,
                    -0.03704
                ],
                [
                    -0.13369,
                    0.10994,
                    3.21288
                ]
            ],
            [
                [
                    2.81144,
                    0.14669,
                    0.1406
                ],
                [
                    -0.28594,
                    3.14608,
                    -0.03704
                ],
                [
                    -0.13374,
                    0.10994,
                    3.21286
                ]
            ],
            [
                [
                    -1.4136,
                    -0.76998,
                    0.20405
                ],
                [
                    -0.80109,
                    -2.78157,
                    0.37352
                ],
                [
                    0.23345,
                    0.42129,
                    -1.23354
                ]
            ],
            [
                [
                    -1.18208,
                    -0.04687,
                    -0.05189
                ],
                [
                    0.00144,
                    -1.29171,
                    -0.64638
                ],
                [
                    0.0498,
                    -0.61577,
                    -2.873
                ]
            ],
            [
                [
                    -1.18205,
                    -0.04682,
                    -0.05187
                ],
                [
                    0.00136,
                    -1.29174,
                    -0.64639
                ],
                [
                    0.04987,
                    -0.61568,
                    -2.87303
                ]
            ],
            [
                [
                    -1.8887,
                    0.08523,
                    -0.27709
                ],
                [
                    0.01937,
                    -1.53754,
                    -0.01933
                ],
                [
                    -0.2719,
                    -0.00209,
                    -1.70591
                ]
            ],
            [
                [
                    -1.88871,
                    0.08526,
                    -0.27719
                ],
                [
                    0.01928,
                    -1.53755,
                    -0.01942
                ],
                [
                    -0.27184,
                    -0.00205,
                    -1.70589
                ]
            ],
            [
                [
                    -2.15206,
                    -0.20942,
                    0.1272
                ],
                [
                    -0.21684,
                    -1.79775,
                    -0.10376
                ],
                [
                    0.10524,
                    -0.05494,
                    -1.24769
                ]
            ],
            [
                [
                    -2.15212,
                    -0.20946,
                    0.12728
                ],
                [
                    -0.21691,
                    -1.79785,
                    -0.10372
                ],
                [
                    0.10522,
                    -0.05493,
                    -1.24765
                ]
            ],
            [
                [
                    -2.05067,
                    0.03907,
                    -0.18264
                ],
                [
                    0.0174,
                    -1.38414,
                    0.04887
                ],
                [
                    -0.2537,
                    0.08462,
                    -1.88019
                ]
            ],
            [
                [
                    -2.05081,
                    0.03895,
                    -0.18276
                ],
                [
                    0.01738,
                    -1.3841,
                    0.04889
                ],
                [
                    -0.25378,
                    0.08457,
                    -1.88028
                ]
            ],
            [
                [
                    -1.74497,
                    0.5942,
                    0.49031
                ],
                [
                    0.58828,
                    -1.75084,
                    -0.4043
                ],
                [
                    0.44297,
                    -0.36596,
                    -1.60704
                ]
            ],
            [
                [
                    -1.74498,
                    0.59412,
                    0.49038
                ],
                [
                    0.58826,
                    -1.75092,
                    -0.40405
                ],
                [
                    0.44301,
                    -0.36591,
                    -1.60713
                ]
            ],
            [
                [
                    -1.62822,
                    0.36142,
                    -0.54693
                ],
                [
                    0.42434,
                    -2.03602,
                    0.33581
                ],
                [
                    -0.54349,
                    0.279,
                    -1.56409
                ]
            ],
            [
                [
                    -1.62835,
                    0.3613,
                    -0.54695
                ],
                [
                    0.42438,
                    -2.03601,
                    0.33584
                ],
                [
                    -0.54359,
                    0.27889,
                    -1.56413
                ]
            ],
            [
                [
                    -1.67265,
                    -0.49411,
                    0.06219
                ],
                [
                    -0.48819,
                    -2.58996,
                    -0.01223
                ],
                [
                    0.06907,
                    -0.06736,
                    -1.09817
                ]
            ],
            [
                [
                    -1.67268,
                    -0.49412,
                    0.06225
                ],
                [
                    -0.48823,
                    -2.59,
                    -0.01217
                ],
                [
                    0.06902,
                    -0.06736,
                    -1.09824
                ]
            ],
            [
                [
                    -1.45796,
                    0.21926,
                    -0.27876
                ],
                [
                    0.21889,
                    -1.51061,
                    0.211
                ],
                [
                    -0.27467,
                    0.17615,
                    -2.03044
                ]
            ],
            [
                [
                    -1.45811,
                    0.21938,
                    -0.27891
                ],
                [
                    0.21872,
                    -1.51054,
                    0.21096
                ],
                [
                    -0.27482,
                    0.17623,
                    -2.03052
                ]
            ],
            [
                [
                    -1.73612,
                    -0.13348,
                    0.20798
                ],
                [
                    -0.06536,
                    -1.64416,
                    0.21037
                ],
                [
                    0.2135,
                    0.18939,
                    -1.55673
                ]
            ],
            [
                [
                    -1.73602,
                    -0.13342,
                    0.20793
                ],
                [
                    -0.06544,
                    -1.64424,
                    0.21039
                ],
                [
                    0.21357,
                    0.18945,
                    -1.55676
                ]
            ],
            [
                [
                    -1.90677,
                    0.15282,
                    0.7137
                ],
                [
                    0.03856,
                    -1.13489,
                    0.0564
                ],
                [
                    0.72726,
                    -0.03852,
                    -2.2009
                ]
            ],
            [
                [
                    -1.90672,
                    0.15278,
                    0.71374
                ],
                [
                    0.03846,
                    -1.13487,
                    0.05635
                ],
                [
                    0.72733,
                    -0.03858,
                    -2.20086
                ]
            ]
        ]
    },
    "band_gap": 4.5654,
    "is_direct": false,
    "formula": "K2Ca4Si8O21"
}