{
    "mp_id": "mp-1213950",
    "nelements": 4,
    "nsites": 14,
    "elements": [
        "Ag",
        "As",
        "Ca",
        "O"
    ],
    "structure": {
        "@module": "pymatgen.core.structure",
        "@class": "Structure",
        "charge": null,
        "lattice": {
            "matrix": [
                [
                    2.91430027,
                    -4.67531847,
                    0.0
                ],
                [
                    2.91430027,
                    4.67531847,
                    0.0
                ],
                [
                    0.0,
                    0.0,
                    7.03032051
                ]
            ],
            "a": 5.5092421311506365,
            "b": 5.5092421311506365,
            "c": 7.03032051,
            "alpha": 90.0,
            "beta": 90.0,
            "gamma": 116.12634946279826,
            "volume": 191.58019730335562
        },
        "sites": [
            {
                "species": [
                    {
                        "element": "Ca",
                        "occu": 1
                    }
                ],
                "abc": [
                    0.0,
                    0.0,
                    0.5
                ],
                "xyz": [
                    0.0,
                    0.0,
                    3.515160255
                ],
                "label": "Ca",
                "properties": {}
            },
            {
                "species": [
                    {
                        "element": "Ca",
                        "occu": 1
                    }
                ],
                "abc": [
                    0.0,
                    0.0,
                    0.0
                ],
                "xyz": [
                    0.0,
                    0.0,
                    0.0
                ],
                "label": "Ca",
                "properties": {}
            },
            {
                "species": [
                    {
                        "element": "Ag",
                        "occu": 1
                    }
                ],
                "abc": [
                    0.31544442,
                    0.68455558,
                    0.75
                ],
                "xyz": [
                    2.91430027,
                    1.7257122238311253,
                    5.2727403825
                ],
                "label": "Ag",
                "properties": {}
            },
            {
                "species": [
                    {
                        "element": "Ag",
                        "occu": 1
                    }
                ],
                "abc": [
                    0.68455558,
                    0.31544442,
                    0.25
                ],
                "xyz": [
                    2.91430027,
                    -1.7257122238311253,
                    1.7575801275
                ],
                "label": "Ag",
                "properties": {}
            },
            {
                "species": [
                    {
                        "element": "As",
                        "occu": 1
                    }
                ],
                "abc": [
                    0.65187207,
                    0.34812793,
                    0.75
                ],
                "xyz": [
                    2.91430027,
                    -1.4201005878962658,
                    5.2727403825
                ],
                "label": "As",
                "properties": {}
            },
            {
                "species": [
                    {
                        "element": "As",
                        "occu": 1
                    }
                ],
                "abc": [
                    0.34812793,
                    0.65187207,
                    0.25
                ],
                "xyz": [
                    2.91430027,
                    1.4201005878962658,
                    1.7575801275
                ],
                "label": "As",
                "properties": {}
            },
            {
                "species": [
                    {
                        "element": "O",
                        "occu": 1
                    }
                ],
                "abc": [
                    0.75879426,
                    0.24120574,
                    0.55428232
                ],
                "xyz": [
                    2.9143002700000005,
                    -2.4198911674159644,
                    3.896782362626383
                ],
                "label": "O",
                "properties": {}
            },
            {
                "species": [
                    {
                        "element": "O",
                        "occu": 1
                    }
                ],
                "abc": [
                    0.24120574,
                    0.75879426,
                    0.44571768
                ],
                "xyz": [
                    2.9143002700000005,
                    2.4198911674159644,
                    3.133538147373617
                ],
                "label": "O",
                "properties": {}
            },
            {
                "species": [
                    {
                        "element": "O",
                        "occu": 1
                    }
                ],
                "abc": [
                    0.24120574,
                    0.75879426,
                    0.05428232
                ],
                "xyz": [
                    2.9143002700000005,
                    2.4198911674159644,
                    0.3816221076263832
                ],
                "label": "O",
                "properties": {}
            },
            {
                "species": [
                    {
                        "element": "O",
                        "occu": 1
                    }
                ],
                "abc": [
                    0.75879426,
                    0.24120574,
                    0.94571768
                ],
                "xyz": [
                    2.9143002700000005,
                    -2.4198911674159644,
                    6.648698402373617
                ],
                "label": "O",
                "properties": {}
            },
            {
                "species": [
                    {
                        "element": "O",
                        "occu": 1
                    }
                ],
                "abc": [
                    0.77575174,
                    0.69641142,
                    0.75
                ],
                "xyz": [
                    4.290325494672054,
                    -0.3709412635117104,
                    5.2727403825
                ],
                "label": "O",
                "properties": {}
            },
            {
                "species": [
                    {
                        "element": "O",
                        "occu": 1
                    }
                ],
                "abc": [
                    0.22424826,
                    0.30358858,
                    0.25
                ],
                "xyz": [
                    1.5382750453279468,
                    0.3709412635117102,
                    1.7575801275
                ],
                "label": "O",
                "properties": {}
            },
            {
                "species": [
                    {
                        "element": "O",
                        "occu": 1
                    }
                ],
                "abc": [
                    0.30358858,
                    0.22424826,
                    0.75
                ],
                "xyz": [
                    1.5382750453279468,
                    -0.3709412635117102,
                    5.2727403825
                ],
                "label": "O",
                "properties": {}
            },
            {
                "species": [
                    {
                        "element": "O",
                        "occu": 1
                    }
                ],
                "abc": [
                    0.69641142,
                    0.77575174,
                    0.25
                ],
                "xyz": [
                    4.290325494672054,
                    0.3709412635117104,
                    1.7575801275
                ],
                "label": "O",
                "properties": {}
            }
        ]
    },
    "spacegroup": {
        "source": "spglib",
        "symbol": "Cmcm",
        "number": 63,
        "point_group": "mmm",
        "crystal_system": "orthorhombic",
        "hall": "-C 2c 2"
    },
    "dielectric": {
        "epsilon_ionic": [
            [
                16.87578641,
                2e-08,
                -1e-08
            ],
            [
                2e-08,
                5.43273759,
                -3e-08
            ],
            [
                -1e-08,
                -3e-08,
                3.95078023
            ]
        ],
        "epsilon_ionic_avg": 8.753101410000001,
        "epsilon_ionic_eig": [
            16.875786410000003,
            5.43273759,
            3.9507802299999994
        ],
        "epsilon_electronic": [
            [
                3.53655981,
                0.0,
                0.0
            ],
            [
                0.0,
                3.72865204,
                0.0
            ],
            [
                0.0,
                -0.0,
                3.81427141
            ]
        ],
        "epsilon_electronic_avg": 3.6931610866666666,
        "epsilon_electronic_eig": [
            3.53655981,
            3.72865204,
            3.81427141
        ]
    },
    "phonon": {
        "lowest_freq": -0.05027664454457986,
        "frequency": [
            -0.05027664454457986,
            -0.03511600954964712,
            -0.013175015916753179,
            1.202216483815495,
            1.2263677182793893,
            1.240369847153273,
            2.369416124561439,
            2.3927205019661533,
            2.9636707074060458,
            3.357597372039467,
            3.4235818863317196,
            4.472315935461503,
            4.673124802575973,
            5.146512508839632,
            5.334424231940371,
            5.720624052860112,
            5.833079575424333,
            6.383152730738543,
            6.3953149314093265,
            6.776262659615916,
            7.560037197551152,
            8.298147777536222,
            8.828551343854414,
            9.0062408470124,
            9.507071823075803,
            9.686215608092626,
            9.762542808956718,
            10.067709841332057,
            10.06957028823973,
            10.907381424778118,
            11.868293652611406,
            12.07361073356121,
            12.076366071916928,
            12.977985829495076,
            22.001284393223845,
            22.192747320996432,
            23.04289489915197,
            23.288141489681518,
            24.121642120318437,
            24.80142671864561,
            25.0267076269459,
            25.135663568158137
        ]
    },
    "born_effective_charge": {
        "avg_abs_trace": 2.1073764285714285,
        "tensors": [
            [
                [
                    2.59604,
                    -0.0,
                    0.0
                ],
                [
                    0.0,
                    2.88107,
                    -0.37223
                ],
                [
                    -0.0,
                    0.22468,
                    2.43072
                ]
            ],
            [
                [
                    2.59604,
                    -0.0,
                    0.0
                ],
                [
                    0.0,
                    2.88107,
                    0.37223
                ],
                [
                    -0.0,
                    -0.22468,
                    2.43072
                ]
            ],
            [
                [
                    0.99647,
                    -0.00012,
                    0.0
                ],
                [
                    0.0,
                    1.28585,
                    -0.0
                ],
                [
                    -0.0,
                    0.00019,
                    1.54684
                ]
            ],
            [
                [
                    0.99647,
                    0.00012,
                    0.0
                ],
                [
                    0.0,
                    1.28602,
                    -0.0
                ],
                [
                    -0.0,
                    -0.00019,
                    1.54684
                ]
            ],
            [
                [
                    3.47921,
                    -8e-05,
                    0.0
                ],
                [
                    0.0,
                    3.46382,
                    -0.0
                ],
                [
                    -0.0,
                    0.00052,
                    3.44711
                ]
            ],
            [
                [
                    3.47921,
                    8e-05,
                    0.0
                ],
                [
                    0.0,
                    3.46428,
                    -0.0
                ],
                [
                    -0.0,
                    -0.00052,
                    3.44711
                ]
            ],
            [
                [
                    -1.20067,
                    4e-05,
                    0.00019
                ],
                [
                    0.0,
                    -1.92439,
                    -0.42294
                ],
                [
                    -0.0,
                    -0.64007,
                    -2.23599
                ]
            ],
            [
                [
                    -1.20067,
                    -4e-05,
                    -0.00019
                ],
                [
                    0.0,
                    -1.92429,
                    -0.42357
                ],
                [
                    -0.0,
                    -0.64009,
                    -2.23537
                ]
            ],
            [
                [
                    -1.20067,
                    -4e-05,
                    0.00019
                ],
                [
                    0.0,
                    -1.92429,
                    0.42357
                ],
                [
                    -0.0,
                    0.64007,
                    -2.23599
                ]
            ],
            [
                [
                    -1.20067,
                    4e-05,
                    -0.00019
                ],
                [
                    0.0,
                    -1.92439,
                    0.42294
                ],
                [
                    -0.0,
                    0.64009,
                    -2.23537
                ]
            ],
            [
                [
                    -2.33519,
                    -0.40604,
                    0.0
                ],
                [
                    -0.42801,
                    -1.89107,
                    -0.0
                ],
                [
                    -7e-05,
                    1e-05,
                    -1.47666
                ]
            ],
            [
                [
                    -2.33519,
                    -0.40618,
                    0.0
                ],
                [
                    -0.4282,
                    -1.89131,
                    -0.0
                ],
                [
                    7e-05,
                    -1e-05,
                    -1.47666
                ]
            ],
            [
                [
                    -2.33519,
                    0.40618,
                    0.0
                ],
                [
                    0.42801,
                    -1.89107,
                    -0.0
                ],
                [
                    7e-05,
                    1e-05,
                    -1.47666
                ]
            ],
            [
                [
                    -2.33519,
                    0.40604,
                    0.0
                ],
                [
                    0.4282,
                    -1.89131,
                    -0.0
                ],
                [
                    -7e-05,
                    -1e-05,
                    -1.47666
                ]
            ]
        ]
    },
    "band_gap": 1.9769,
    "is_direct": false,
    "formula": "CaAgAsO4"
}