{
    "mp_id": "mp-1218197",
    "nelements": 4,
    "nsites": 24,
    "elements": [
        "Ga",
        "La",
        "O",
        "Sr"
    ],
    "structure": {
        "@module": "pymatgen.core.structure",
        "@class": "Structure",
        "charge": null,
        "lattice": {
            "matrix": [
                [
                    5.67597308,
                    -5.676015,
                    0.0
                ],
                [
                    5.67597308,
                    5.676015,
                    0.0
                ],
                [
                    0.0,
                    0.0,
                    5.31708815
                ]
            ],
            "a": 8.027067751371586,
            "b": 8.027067751371586,
            "c": 5.31708815,
            "alpha": 90.0,
            "beta": 90.0,
            "gamma": 90.00042315743467,
            "volume": 342.60028314632535
        },
        "sites": [
            {
                "species": [
                    {
                        "element": "Sr",
                        "occu": 1
                    }
                ],
                "abc": [
                    0.83837347,
                    0.16162653,
                    0.50988833
                ],
                "xyz": [
                    5.67597308,
                    -3.8412257826440994,
                    2.7111211972662894
                ],
                "label": "Sr",
                "properties": {}
            },
            {
                "species": [
                    {
                        "element": "Sr",
                        "occu": 1
                    }
                ],
                "abc": [
                    0.16162653,
                    0.83837347,
                    0.50988833
                ],
                "xyz": [
                    5.67597308,
                    3.8412257826440994,
                    2.7111211972662894
                ],
                "label": "Sr",
                "properties": {}
            },
            {
                "species": [
                    {
                        "element": "La",
                        "occu": 1
                    }
                ],
                "abc": [
                    0.66321075,
                    0.66321075,
                    0.49145148
                ],
                "xyz": [
                    7.52873272673322,
                    0.0,
                    2.613090840607962
                ],
                "label": "La",
                "properties": {}
            },
            {
                "species": [
                    {
                        "element": "La",
                        "occu": 1
                    }
                ],
                "abc": [
                    0.33678925,
                    0.33678925,
                    0.49145148
                ],
                "xyz": [
                    3.82321343326678,
                    0.0,
                    2.613090840607962
                ],
                "label": "La",
                "properties": {}
            },
            {
                "species": [
                    {
                        "element": "Ga",
                        "occu": 1
                    }
                ],
                "abc": [
                    0.0,
                    0.5,
                    0.99923107
                ],
                "xyz": [
                    2.83798654,
                    2.8380075,
                    5.3129996814088205
                ],
                "label": "Ga",
                "properties": {}
            },
            {
                "species": [
                    {
                        "element": "Ga",
                        "occu": 1
                    }
                ],
                "abc": [
                    0.5,
                    0.0,
                    0.99923107
                ],
                "xyz": [
                    2.83798654,
                    -2.8380075,
                    5.3129996814088205
                ],
                "label": "Ga",
                "properties": {}
            },
            {
                "species": [
                    {
                        "element": "Ga",
                        "occu": 1
                    }
                ],
                "abc": [
                    0.64326942,
                    0.35673058,
                    0.96739266
                ],
                "xyz": [
                    5.67597308,
                    -1.6263987539226,
                    5.143712048882979
                ],
                "label": "Ga",
                "properties": {}
            },
            {
                "species": [
                    {
                        "element": "Ga",
                        "occu": 1
                    }
                ],
                "abc": [
                    0.85553633,
                    0.85553633,
                    0.03384771
                ],
                "xyz": [
                    9.712002356083993,
                    0.0,
                    0.17997125774563652
                ],
                "label": "Ga",
                "properties": {}
            },
            {
                "species": [
                    {
                        "element": "Ga",
                        "occu": 1
                    }
                ],
                "abc": [
                    0.35673058,
                    0.64326942,
                    0.96739266
                ],
                "xyz": [
                    5.67597308,
                    1.6263987539226,
                    5.143712048882979
                ],
                "label": "Ga",
                "properties": {}
            },
            {
                "species": [
                    {
                        "element": "Ga",
                        "occu": 1
                    }
                ],
                "abc": [
                    0.14446367,
                    0.14446367,
                    0.03384771
                ],
                "xyz": [
                    1.6399438039160072,
                    0.0,
                    0.17997125774563652
                ],
                "label": "Ga",
                "properties": {}
            },
            {
                "species": [
                    {
                        "element": "O",
                        "occu": 1
                    }
                ],
                "abc": [
                    0.63074218,
                    0.36925782,
                    0.3069583
                ],
                "xyz": [
                    5.67597308,
                    -1.4841891496254003,
                    1.6321243394741451
                ],
                "label": "O",
                "properties": {}
            },
            {
                "species": [
                    {
                        "element": "O",
                        "occu": 1
                    }
                ],
                "abc": [
                    0.85131634,
                    0.85131634,
                    0.69511573
                ],
                "xyz": [
                    9.664097256808255,
                    0.0,
                    3.6959916108615998
                ],
                "label": "O",
                "properties": {}
            },
            {
                "species": [
                    {
                        "element": "O",
                        "occu": 1
                    }
                ],
                "abc": [
                    0.36925782,
                    0.63074218,
                    0.3069583
                ],
                "xyz": [
                    5.67597308,
                    1.4841891496254003,
                    1.6321243394741451
                ],
                "label": "O",
                "properties": {}
            },
            {
                "species": [
                    {
                        "element": "O",
                        "occu": 1
                    }
                ],
                "abc": [
                    0.14868366,
                    0.14868366,
                    0.69511573
                ],
                "xyz": [
                    1.6878489031917456,
                    0.0,
                    3.6959916108615998
                ],
                "label": "O",
                "properties": {}
            },
            {
                "species": [
                    {
                        "element": "O",
                        "occu": 1
                    }
                ],
                "abc": [
                    0.83463095,
                    0.41832264,
                    0.7944925
                ],
                "xyz": [
                    7.111730847329358,
                    -2.362972212184649,
                    4.224386657013875
                ],
                "label": "O",
                "properties": {}
            },
            {
                "species": [
                    {
                        "element": "O",
                        "occu": 1
                    }
                ],
                "abc": [
                    0.65922003,
                    0.90723564,
                    0.20773838
                ],
                "xyz": [
                    8.891160213933365,
                    1.40774032259415,
                    1.104563278598197
                ],
                "label": "O",
                "properties": {}
            },
            {
                "species": [
                    {
                        "element": "O",
                        "occu": 1
                    }
                ],
                "abc": [
                    0.16536905,
                    0.58167736,
                    0.7944925
                ],
                "xyz": [
                    4.240215312670643,
                    2.36297221218465,
                    4.224386657013875
                ],
                "label": "O",
                "properties": {}
            },
            {
                "species": [
                    {
                        "element": "O",
                        "occu": 1
                    }
                ],
                "abc": [
                    0.34077997,
                    0.09276436,
                    0.20773838
                ],
                "xyz": [
                    2.4607859460666366,
                    -1.4077403225941498,
                    1.104563278598197
                ],
                "label": "O",
                "properties": {}
            },
            {
                "species": [
                    {
                        "element": "O",
                        "occu": 1
                    }
                ],
                "abc": [
                    0.09276436,
                    0.34077997,
                    0.20773838
                ],
                "xyz": [
                    2.4607859460666366,
                    1.4077403225941498,
                    1.104563278598197
                ],
                "label": "O",
                "properties": {}
            },
            {
                "species": [
                    {
                        "element": "O",
                        "occu": 1
                    }
                ],
                "abc": [
                    0.41832264,
                    0.83463095,
                    0.7944925
                ],
                "xyz": [
                    7.111730847329358,
                    2.362972212184649,
                    4.224386657013875
                ],
                "label": "O",
                "properties": {}
            },
            {
                "species": [
                    {
                        "element": "O",
                        "occu": 1
                    }
                ],
                "abc": [
                    0.90723564,
                    0.65922003,
                    0.20773838
                ],
                "xyz": [
                    8.891160213933365,
                    -1.40774032259415,
                    1.104563278598197
                ],
                "label": "O",
                "properties": {}
            },
            {
                "species": [
                    {
                        "element": "O",
                        "occu": 1
                    }
                ],
                "abc": [
                    0.58167736,
                    0.16536905,
                    0.7944925
                ],
                "xyz": [
                    4.240215312670643,
                    -2.36297221218465,
                    4.224386657013875
                ],
                "label": "O",
                "properties": {}
            },
            {
                "species": [
                    {
                        "element": "O",
                        "occu": 1
                    }
                ],
                "abc": [
                    0.0,
                    0.0,
                    0.18498364
                ],
                "xyz": [
                    0.0,
                    0.0,
                    0.9835743201878661
                ],
                "label": "O",
                "properties": {}
            },
            {
                "species": [
                    {
                        "element": "O",
                        "occu": 1
                    }
                ],
                "abc": [
                    0.5,
                    0.5,
                    0.79832226
                ],
                "xyz": [
                    5.67597308,
                    0.0,
                    4.244749828527219
                ],
                "label": "O",
                "properties": {}
            }
        ]
    },
    "spacegroup": {
        "source": "spglib",
        "symbol": "Cmm2",
        "number": 35,
        "point_group": "mm2",
        "crystal_system": "orthorhombic",
        "hall": "C 2 -2"
    },
    "dielectric": {
        "epsilon_ionic": [
            [
                12.01745181,
                -0.0,
                4.07e-06
            ],
            [
                -0.0,
                10.25789696,
                1.2e-06
            ],
            [
                4.07e-06,
                1.2e-06,
                5.93135834
            ]
        ],
        "epsilon_ionic_avg": 9.402235703333337,
        "epsilon_ionic_eig": [
            12.017451810002727,
            5.931358339996948,
            10.257896960000332
        ],
        "epsilon_electronic": [
            [
                3.74365372,
                0.0,
                0.0
            ],
            [
                0.0,
                3.58122956,
                0.0
            ],
            [
                0.0,
                0.0,
                3.71519633
            ]
        ],
        "epsilon_electronic_avg": 3.6800265366666665,
        "epsilon_electronic_eig": [
            3.74365372,
            3.58122956,
            3.71519633
        ]
    },
    "phonon": {
        "lowest_freq": -0.1341720448608837,
        "frequency": [
            -0.1341720448608837,
            -0.060166190688086575,
            -0.05726980810557396,
            1.6388224056631273,
            1.6970563840501118,
            1.8874686845591861,
            2.119544630219168,
            3.000413225756427,
            3.018820951615989,
            3.180309857029676,
            3.2834847416393114,
            3.299987894305424,
            3.695184590566759,
            3.7154406410225227,
            3.8038241839037843,
            3.86651148260201,
            4.418734627180925,
            4.4669346929136315,
            4.55354723578475,
            4.589408079540678,
            4.808355126586367,
            4.825658446323208,
            5.069056287648884,
            5.251396713759783,
            5.316616224321427,
            5.911629352126154,
            6.1139132317531555,
            6.1473904366758605,
            6.2086799872244685,
            6.3412348520076645,
            6.473283135522636,
            6.606246188132753,
            6.78153075425543,
            6.8267521181179625,
            6.91769601824092,
            7.10734001304581,
            7.761134883582138,
            8.100391908790291,
            8.168039778612066,
            8.375459965507135,
            8.388242287335215,
            8.675207388122416,
            8.70373016302137,
            8.946465010881543,
            9.601331821246088,
            11.414169889792655,
            12.119646720431899,
            12.135765458919897,
            13.745033535915242,
            14.21594528258714,
            14.245437329477827,
            14.41817372093131,
            14.56956176091653,
            14.810958912852309,
            14.894268262058112,
            15.06261849997196,
            15.33189252405545,
            15.531569360754062,
            17.99033179827306,
            18.60360501042504,
            18.9012225939539,
            18.948829414165782,
            19.123787467054893,
            19.144060279320612,
            19.249265326819014,
            19.68473235203716,
            19.82197979766547,
            21.113804526319637,
            21.433796332821537,
            21.984947242263093,
            22.65669969088277,
            23.456306868014718
        ]
    },
    "born_effective_charge": {
        "avg_abs_trace": 2.39806375,
        "tensors": [
            [
                [
                    2.37793,
                    0.0,
                    -2e-05
                ],
                [
                    -0.0,
                    2.81326,
                    0.18934
                ],
                [
                    -0.0,
                    0.21738,
                    2.43611
                ]
            ],
            [
                [
                    2.37793,
                    -0.0,
                    -2e-05
                ],
                [
                    -0.0,
                    2.81331,
                    -0.18933
                ],
                [
                    -0.0,
                    -0.21738,
                    2.43611
                ]
            ],
            [
                [
                    4.64584,
                    -0.0,
                    0.16473
                ],
                [
                    2e-05,
                    3.28595,
                    1e-05
                ],
                [
                    -0.01746,
                    -0.0,
                    4.12497
                ]
            ],
            [
                [
                    4.64586,
                    -0.0,
                    -0.16462
                ],
                [
                    -2e-05,
                    3.28595,
                    1e-05
                ],
                [
                    0.01746,
                    -0.0,
                    4.12497
                ]
            ],
            [
                [
                    2.74667,
                    0.26168,
                    -2e-05
                ],
                [
                    0.242,
                    3.14667,
                    -2e-05
                ],
                [
                    -0.0,
                    -0.0,
                    2.29213
                ]
            ],
            [
                [
                    2.74667,
                    -0.26168,
                    -2e-05
                ],
                [
                    -0.242,
                    3.14667,
                    -2e-05
                ],
                [
                    -0.0,
                    -0.0,
                    2.29213
                ]
            ],
            [
                [
                    2.58893,
                    -0.0,
                    -2e-05
                ],
                [
                    -0.0,
                    2.28688,
                    0.17408
                ],
                [
                    -0.0,
                    -0.132,
                    2.71742
                ]
            ],
            [
                [
                    2.62791,
                    -0.0,
                    -0.16449
                ],
                [
                    -2e-05,
                    2.40392,
                    -0.0
                ],
                [
                    0.05358,
                    -0.0,
                    2.6705
                ]
            ],
            [
                [
                    2.58893,
                    0.0,
                    -2e-05
                ],
                [
                    -0.0,
                    2.28685,
                    -0.17408
                ],
                [
                    -0.0,
                    0.132,
                    2.71742
                ]
            ],
            [
                [
                    2.62795,
                    -0.0,
                    0.16442
                ],
                [
                    2e-05,
                    2.40392,
                    -0.0
                ],
                [
                    -0.05358,
                    -0.0,
                    2.6705
                ]
            ],
            [
                [
                    -2.00486,
                    -0.0,
                    1e-05
                ],
                [
                    -0.0,
                    -1.92609,
                    -0.25666
                ],
                [
                    -0.0,
                    -0.32077,
                    -2.31019
                ]
            ],
            [
                [
                    -2.40339,
                    -0.0,
                    0.35794
                ],
                [
                    -2e-05,
                    -1.53392,
                    -1e-05
                ],
                [
                    0.46402,
                    -0.0,
                    -2.36903
                ]
            ],
            [
                [
                    -2.00486,
                    0.0,
                    1e-05
                ],
                [
                    -0.0,
                    -1.92607,
                    0.25663
                ],
                [
                    -0.0,
                    0.32077,
                    -2.31019
                ]
            ],
            [
                [
                    -2.40339,
                    -0.0,
                    -0.35792
                ],
                [
                    2e-05,
                    -1.53392,
                    -1e-05
                ],
                [
                    -0.46402,
                    -0.0,
                    -2.36903
                ]
            ],
            [
                [
                    -2.26721,
                    -0.2931,
                    0.1532
                ],
                [
                    -0.30437,
                    -1.8597,
                    -0.00924
                ],
                [
                    0.21222,
                    0.12259,
                    -1.77597
                ]
            ],
            [
                [
                    -1.8267,
                    -0.05765,
                    -0.26575
                ],
                [
                    -0.01496,
                    -2.42181,
                    0.3959
                ],
                [
                    -0.29393,
                    0.40414,
                    -1.94447
                ]
            ],
            [
                [
                    -2.26721,
                    -0.29306,
                    -0.15319
                ],
                [
                    -0.30437,
                    -1.85969,
                    0.00924
                ],
                [
                    -0.21222,
                    -0.12259,
                    -1.77597
                ]
            ],
            [
                [
                    -1.82672,
                    -0.05765,
                    0.26578
                ],
                [
                    -0.01493,
                    -2.42181,
                    -0.39587
                ],
                [
                    0.29393,
                    -0.40414,
                    -1.94447
                ]
            ],
            [
                [
                    -1.82672,
                    0.05765,
                    0.26578
                ],
                [
                    0.01496,
                    -2.42181,
                    0.3959
                ],
                [
                    0.29393,
                    0.40414,
                    -1.94447
                ]
            ],
            [
                [
                    -2.26721,
                    0.2931,
                    0.1532
                ],
                [
                    0.30437,
                    -1.85969,
                    0.00924
                ],
                [
                    0.21222,
                    -0.12259,
                    -1.77597
                ]
            ],
            [
                [
                    -1.8267,
                    0.05765,
                    -0.26575
                ],
                [
                    0.01493,
                    -2.42181,
                    -0.39587
                ],
                [
                    -0.29393,
                    -0.40414,
                    -1.94447
                ]
            ],
            [
                [
                    -2.26721,
                    0.29306,
                    -0.15319
                ],
                [
                    0.30437,
                    -1.8597,
                    -0.00924
                ],
                [
                    -0.21222,
                    0.12259,
                    -1.77597
                ]
            ],
            [
                [
                    -2.74691,
                    -0.0,
                    0.0
                ],
                [
                    -0.0,
                    -1.55356,
                    -1e-05
                ],
                [
                    -0.0,
                    -0.0,
                    -1.88332
                ]
            ],
            [
                [
                    -2.03556,
                    -0.0,
                    -4e-05
                ],
                [
                    -0.0,
                    -2.27383,
                    2e-05
                ],
                [
                    -0.0,
                    -0.0,
                    -2.35875
                ]
            ]
        ]
    },
    "band_gap": 3.2866,
    "is_direct": true,
    "formula": "SrLaGa3O7"
}