{
    "mp_id": "mp-12286",
    "nelements": 3,
    "nsites": 22,
    "elements": [
        "O",
        "Sr",
        "Ta"
    ],
    "structure": {
        "@module": "pymatgen.core.structure",
        "@class": "Structure",
        "charge": null,
        "lattice": {
            "matrix": [
                [
                    1.9864008,
                    -13.70149355,
                    0.0
                ],
                [
                    1.9864008,
                    13.70149355,
                    0.0
                ],
                [
                    0.0,
                    0.0,
                    5.69087931
                ]
            ],
            "a": 13.844735954106609,
            "b": 13.844735954106609,
            "c": 5.69087931,
            "alpha": 90.0,
            "beta": 90.0,
            "gamma": 163.50181204770695,
            "volume": 309.7734289413013
        },
        "sites": [
            {
                "species": [
                    {
                        "element": "Sr",
                        "occu": 1
                    }
                ],
                "abc": [
                    0.28461849,
                    0.71538151,
                    0.75
                ],
                "xyz": [
                    1.9864008,
                    5.902096740108522,
                    4.2681594825
                ],
                "label": "Sr",
                "properties": {}
            },
            {
                "species": [
                    {
                        "element": "Sr",
                        "occu": 1
                    }
                ],
                "abc": [
                    0.71538151,
                    0.28461849,
                    0.25
                ],
                "xyz": [
                    1.9864008,
                    -5.902096740108522,
                    1.4227198275
                ],
                "label": "Sr",
                "properties": {}
            },
            {
                "species": [
                    {
                        "element": "Sr",
                        "occu": 1
                    }
                ],
                "abc": [
                    0.44549322,
                    0.55450678,
                    0.25
                ],
                "xyz": [
                    1.9864007999999997,
                    1.4936485892025377,
                    1.4227198275
                ],
                "label": "Sr",
                "properties": {}
            },
            {
                "species": [
                    {
                        "element": "Sr",
                        "occu": 1
                    }
                ],
                "abc": [
                    0.55450678,
                    0.44549322,
                    0.75
                ],
                "xyz": [
                    1.9864007999999997,
                    -1.4936485892025377,
                    4.2681594825
                ],
                "label": "Sr",
                "properties": {}
            },
            {
                "species": [
                    {
                        "element": "Ta",
                        "occu": 1
                    }
                ],
                "abc": [
                    0.84104617,
                    0.15895383,
                    0.25
                ],
                "xyz": [
                    1.9864008,
                    -9.345683797014408,
                    1.4227198275
                ],
                "label": "Ta",
                "properties": {}
            },
            {
                "species": [
                    {
                        "element": "Ta",
                        "occu": 1
                    }
                ],
                "abc": [
                    0.15895383,
                    0.84104617,
                    0.75
                ],
                "xyz": [
                    1.9864008,
                    9.345683797014408,
                    4.2681594825
                ],
                "label": "Ta",
                "properties": {}
            },
            {
                "species": [
                    {
                        "element": "Ta",
                        "occu": 1
                    }
                ],
                "abc": [
                    0.94583406,
                    0.05416594,
                    0.75
                ],
                "xyz": [
                    1.9864008000000002,
                    -12.217184994920627,
                    4.2681594825
                ],
                "label": "Ta",
                "properties": {}
            },
            {
                "species": [
                    {
                        "element": "Ta",
                        "occu": 1
                    }
                ],
                "abc": [
                    0.05416594,
                    0.94583406,
                    0.25
                ],
                "xyz": [
                    1.9864008000000002,
                    12.217184994920627,
                    1.4227198275
                ],
                "label": "Ta",
                "properties": {}
            },
            {
                "species": [
                    {
                        "element": "O",
                        "occu": 1
                    }
                ],
                "abc": [
                    0.0,
                    0.0,
                    0.0
                ],
                "xyz": [
                    0.0,
                    0.0,
                    0.0
                ],
                "label": "O",
                "properties": {}
            },
            {
                "species": [
                    {
                        "element": "O",
                        "occu": 1
                    }
                ],
                "abc": [
                    0.0,
                    0.0,
                    0.5
                ],
                "xyz": [
                    0.0,
                    0.0,
                    2.845439655
                ],
                "label": "O",
                "properties": {}
            },
            {
                "species": [
                    {
                        "element": "O",
                        "occu": 1
                    }
                ],
                "abc": [
                    0.54671952,
                    0.45328048,
                    0.25
                ],
                "xyz": [
                    1.9864008,
                    -1.2802544038781924,
                    1.4227198275
                ],
                "label": "O",
                "properties": {}
            },
            {
                "species": [
                    {
                        "element": "O",
                        "occu": 1
                    }
                ],
                "abc": [
                    0.45328048,
                    0.54671952,
                    0.75
                ],
                "xyz": [
                    1.9864008,
                    1.2802544038781924,
                    4.2681594825
                ],
                "label": "O",
                "properties": {}
            },
            {
                "species": [
                    {
                        "element": "O",
                        "occu": 1
                    }
                ],
                "abc": [
                    0.90107448,
                    0.09892552,
                    0.01028723
                ],
                "xyz": [
                    1.9864008,
                    -10.990638801579207,
                    0.0585433843642113
                ],
                "label": "O",
                "properties": {}
            },
            {
                "species": [
                    {
                        "element": "O",
                        "occu": 1
                    }
                ],
                "abc": [
                    0.09892552,
                    0.90107448,
                    0.98971277
                ],
                "xyz": [
                    1.9864008,
                    10.990638801579207,
                    5.632335925635789
                ],
                "label": "O",
                "properties": {}
            },
            {
                "species": [
                    {
                        "element": "O",
                        "occu": 1
                    }
                ],
                "abc": [
                    0.09892552,
                    0.90107448,
                    0.51028723
                ],
                "xyz": [
                    1.9864008,
                    10.990638801579207,
                    2.903983039364211
                ],
                "label": "O",
                "properties": {}
            },
            {
                "species": [
                    {
                        "element": "O",
                        "occu": 1
                    }
                ],
                "abc": [
                    0.90107448,
                    0.09892552,
                    0.48971277
                ],
                "xyz": [
                    1.9864008,
                    -10.990638801579207,
                    2.7868962706357885
                ],
                "label": "O",
                "properties": {}
            },
            {
                "species": [
                    {
                        "element": "O",
                        "occu": 1
                    }
                ],
                "abc": [
                    0.79366748,
                    0.20633252,
                    0.48970171
                ],
                "xyz": [
                    1.9864007999999997,
                    -8.047366166129509,
                    2.7868333295106202
                ],
                "label": "O",
                "properties": {}
            },
            {
                "species": [
                    {
                        "element": "O",
                        "occu": 1
                    }
                ],
                "abc": [
                    0.20633252,
                    0.79366748,
                    0.51029829
                ],
                "xyz": [
                    1.9864007999999997,
                    8.047366166129509,
                    2.90404598048938
                ],
                "label": "O",
                "properties": {}
            },
            {
                "species": [
                    {
                        "element": "O",
                        "occu": 1
                    }
                ],
                "abc": [
                    0.20633252,
                    0.79366748,
                    0.98970171
                ],
                "xyz": [
                    1.9864007999999997,
                    8.047366166129509,
                    5.632272984510619
                ],
                "label": "O",
                "properties": {}
            },
            {
                "species": [
                    {
                        "element": "O",
                        "occu": 1
                    }
                ],
                "abc": [
                    0.79366748,
                    0.20633252,
                    0.01029829
                ],
                "xyz": [
                    1.9864007999999997,
                    -8.047366166129509,
                    0.0586063254893799
                ],
                "label": "O",
                "properties": {}
            },
            {
                "species": [
                    {
                        "element": "O",
                        "occu": 1
                    }
                ],
                "abc": [
                    0.35101753,
                    0.64898247,
                    0.25
                ],
                "xyz": [
                    1.9864008,
                    4.0825647035361365,
                    1.4227198275
                ],
                "label": "O",
                "properties": {}
            },
            {
                "species": [
                    {
                        "element": "O",
                        "occu": 1
                    }
                ],
                "abc": [
                    0.64898247,
                    0.35101753,
                    0.75
                ],
                "xyz": [
                    1.9864008,
                    -4.0825647035361365,
                    4.2681594825
                ],
                "label": "O",
                "properties": {}
            }
        ]
    },
    "spacegroup": {
        "source": "spglib",
        "symbol": "Cmcm",
        "number": 63,
        "point_group": "mmm",
        "crystal_system": "orthorhombic",
        "hall": "-C 2c 2"
    },
    "dielectric": {
        "epsilon_ionic": [
            [
                22.5002708,
                4e-08,
                2e-08
            ],
            [
                4e-08,
                12.76267257,
                -3e-08
            ],
            [
                2e-08,
                -3e-08,
                33.06069985
            ]
        ],
        "epsilon_ionic_avg": 22.77454774,
        "epsilon_ionic_eig": [
            22.500270800000003,
            12.762672569999994,
            33.06069985
        ],
        "epsilon_electronic": [
            [
                4.42587384,
                0.0,
                0.0
            ],
            [
                0.0,
                4.1591019,
                0.0
            ],
            [
                0.0,
                0.0,
                4.4378056
            ]
        ],
        "epsilon_electronic_avg": 4.340927113333334,
        "epsilon_electronic_eig": [
            4.42587384,
            4.1591019,
            4.4378056
        ]
    },
    "phonon": {
        "lowest_freq": -0.10483827858674333,
        "frequency": [
            -0.10483827858674333,
            -0.06097409403593798,
            -0.005328376459076062,
            0.9954494595603539,
            1.890760705821859,
            2.006789738846757,
            2.181311989455508,
            2.6736596729642814,
            2.8093158398878164,
            2.8968080564209986,
            3.105591111836567,
            3.1301141322814825,
            3.326557541573443,
            3.4718397414044575,
            3.5405250964729897,
            3.5947459648931264,
            3.661633259280841,
            3.903838411489448,
            4.235750002087685,
            4.264051353370621,
            4.33310813951286,
            4.385066371153075,
            5.012307831659172,
            5.52464951701932,
            5.873392946143287,
            6.32293109679902,
            6.582024088928836,
            6.821150501632247,
            7.211402286732685,
            7.225631801992264,
            7.308056864539285,
            7.435652641009469,
            7.566350124287576,
            7.863536018606865,
            8.230697248199359,
            8.403265069167215,
            8.982241378467052,
            9.025544323084805,
            9.243006628335335,
            9.26843769273978,
            9.31009835941627,
            9.543342297742509,
            9.972449170103191,
            10.150363952404456,
            10.288117977835583,
            10.43832791822583,
            10.578991111848108,
            10.802615607292916,
            12.359008218979989,
            12.781457271950458,
            12.839122197781043,
            13.378506222486273,
            17.39490066881969,
            17.538045639325063,
            17.550673138695025,
            18.03619587142676,
            18.219511068478123,
            18.35633222856421,
            18.843220980738852,
            18.89802619051056,
            19.365518540855852,
            19.825788400975583,
            23.465556410190995,
            23.65275179565543,
            25.138357539593983,
            25.21247328976644
        ]
    },
    "born_effective_charge": {
        "avg_abs_trace": 3.409038939393939,
        "tensors": [
            [
                [
                    2.56645,
                    -0.00014,
                    -0.0
                ],
                [
                    0.0,
                    2.75595,
                    0.0
                ],
                [
                    0.0,
                    0.00016,
                    2.72349
                ]
            ],
            [
                [
                    2.56645,
                    0.00014,
                    -0.0
                ],
                [
                    0.0,
                    2.75692,
                    0.0
                ],
                [
                    -0.0,
                    -0.00016,
                    2.72349
                ]
            ],
            [
                [
                    2.5485,
                    -7e-05,
                    -0.0
                ],
                [
                    0.0,
                    2.13906,
                    0.0
                ],
                [
                    0.0,
                    -0.0,
                    2.55768
                ]
            ],
            [
                [
                    2.5485,
                    7e-05,
                    -0.0
                ],
                [
                    0.0,
                    2.13922,
                    0.0
                ],
                [
                    -0.0,
                    0.0,
                    2.55768
                ]
            ],
            [
                [
                    7.1645,
                    0.00075,
                    -0.0
                ],
                [
                    0.0,
                    6.75902,
                    0.0
                ],
                [
                    -0.0,
                    -0.00044,
                    5.9804
                ]
            ],
            [
                [
                    7.1645,
                    -0.00075,
                    -0.0
                ],
                [
                    0.0,
                    6.75863,
                    0.0
                ],
                [
                    -0.0,
                    0.00044,
                    5.9804
                ]
            ],
            [
                [
                    7.34574,
                    0.00052,
                    -0.0
                ],
                [
                    0.0,
                    5.76868,
                    0.0
                ],
                [
                    0.0,
                    -0.00039,
                    7.93934
                ]
            ],
            [
                [
                    7.34574,
                    -0.00052,
                    -0.0
                ],
                [
                    0.0,
                    5.76863,
                    0.0
                ],
                [
                    -0.0,
                    0.00039,
                    7.93934
                ]
            ],
            [
                [
                    -1.88904,
                    0.0,
                    -0.0
                ],
                [
                    0.0,
                    -3.00703,
                    1.4258
                ],
                [
                    -0.0,
                    1.72101,
                    -3.54471
                ]
            ],
            [
                [
                    -1.88904,
                    0.0,
                    -0.0
                ],
                [
                    0.0,
                    -3.00703,
                    -1.4258
                ],
                [
                    -0.0,
                    -1.72101,
                    -3.54471
                ]
            ],
            [
                [
                    -5.59024,
                    0.00096,
                    -0.0
                ],
                [
                    0.0,
                    -1.29257,
                    0.0
                ],
                [
                    -0.0,
                    -1e-05,
                    -1.74191
                ]
            ],
            [
                [
                    -5.59024,
                    -0.00096,
                    -0.0
                ],
                [
                    0.0,
                    -1.29267,
                    0.0
                ],
                [
                    -0.0,
                    1e-05,
                    -1.74191
                ]
            ],
            [
                [
                    -1.63157,
                    -7e-05,
                    -0.00016
                ],
                [
                    0.0,
                    -2.99167,
                    -1.71093
                ],
                [
                    -0.0,
                    -1.86144,
                    -3.64441
                ]
            ],
            [
                [
                    -1.63157,
                    7e-05,
                    0.00016
                ],
                [
                    0.0,
                    -2.99148,
                    -1.71097
                ],
                [
                    -0.0,
                    -1.86228,
                    -3.64434
                ]
            ],
            [
                [
                    -1.63157,
                    7e-05,
                    -0.00016
                ],
                [
                    0.0,
                    -2.99148,
                    1.71097
                ],
                [
                    -0.0,
                    1.86144,
                    -3.64441
                ]
            ],
            [
                [
                    -1.63157,
                    -7e-05,
                    0.00016
                ],
                [
                    0.0,
                    -2.99167,
                    1.71093
                ],
                [
                    -0.0,
                    1.86228,
                    -3.64434
                ]
            ],
            [
                [
                    -1.68053,
                    -0.00014,
                    -0.0001
                ],
                [
                    0.0,
                    -2.73167,
                    -1.0317
                ],
                [
                    -0.0,
                    -1.06047,
                    -2.69942
                ]
            ],
            [
                [
                    -1.68053,
                    0.00014,
                    0.0001
                ],
                [
                    0.0,
                    -2.73169,
                    -1.03217
                ],
                [
                    -0.0,
                    -1.0608,
                    -2.69914
                ]
            ],
            [
                [
                    -1.68053,
                    0.00014,
                    -0.0001
                ],
                [
                    0.0,
                    -2.73169,
                    1.03217
                ],
                [
                    -0.0,
                    1.06047,
                    -2.69942
                ]
            ],
            [
                [
                    -1.68053,
                    -0.00014,
                    0.0001
                ],
                [
                    0.0,
                    -2.73167,
                    1.0317
                ],
                [
                    -0.0,
                    1.0608,
                    -2.69914
                ]
            ],
            [
                [
                    -5.52171,
                    -0.00106,
                    -0.0
                ],
                [
                    0.0,
                    -1.677,
                    0.0
                ],
                [
                    -0.0,
                    -1e-05,
                    -1.22696
                ]
            ],
            [
                [
                    -5.52171,
                    0.00106,
                    -0.0
                ],
                [
                    0.0,
                    -1.67678,
                    0.0
                ],
                [
                    -0.0,
                    1e-05,
                    -1.22696
                ]
            ]
        ]
    },
    "band_gap": 3.0686,
    "is_direct": true,
    "formula": "Sr2Ta2O7"
}