{
    "mp_id": "mp-19365",
    "nelements": 3,
    "nsites": 13,
    "elements": [
        "Ba",
        "O",
        "V"
    ],
    "structure": {
        "@module": "pymatgen.core.structure",
        "@class": "Structure",
        "charge": null,
        "lattice": {
            "matrix": [
                [
                    2.88458054,
                    1.66541277,
                    7.11898613
                ],
                [
                    -2.88458054,
                    1.66541277,
                    7.11898613
                ],
                [
                    0.0,
                    -3.33082653,
                    7.11898613
                ]
            ],
            "a": 7.859667175228105,
            "b": 7.859667175228105,
            "c": 7.859667225276412,
            "alpha": 43.06272684261542,
            "beta": 43.06272684261542,
            "gamma": 43.06273210248089,
            "volume": 205.19843442968414
        },
        "sites": [
            {
                "species": [
                    {
                        "element": "Ba",
                        "occu": 1
                    }
                ],
                "abc": [
                    0.20526763,
                    0.20526763,
                    0.20526763
                ],
                "xyz": [
                    0.0,
                    -2.032149537534167e-07,
                    4.383892232723916
                ],
                "label": "Ba",
                "properties": {}
            },
            {
                "species": [
                    {
                        "element": "Ba",
                        "occu": 1
                    }
                ],
                "abc": [
                    0.79473237,
                    0.79473237,
                    0.79473237
                ],
                "xyz": [
                    0.0,
                    -7.867850460030468e-07,
                    16.973066157276083
                ],
                "label": "Ba",
                "properties": {}
            },
            {
                "species": [
                    {
                        "element": "Ba",
                        "occu": 1
                    }
                ],
                "abc": [
                    0.0,
                    0.0,
                    0.0
                ],
                "xyz": [
                    0.0,
                    0.0,
                    0.0
                ],
                "label": "Ba",
                "properties": {}
            },
            {
                "species": [
                    {
                        "element": "V",
                        "occu": 1
                    }
                ],
                "abc": [
                    0.5924902,
                    0.5924902,
                    0.5924902
                ],
                "xyz": [
                    0.0,
                    -5.86565297888697e-07,
                    12.653788547882776
                ],
                "label": "V",
                "properties": {}
            },
            {
                "species": [
                    {
                        "element": "V",
                        "occu": 1
                    }
                ],
                "abc": [
                    0.4075098,
                    0.4075098,
                    0.4075098
                ],
                "xyz": [
                    0.0,
                    -4.034347018677664e-07,
                    8.703169842117221
                ],
                "label": "V",
                "properties": {}
            },
            {
                "species": [
                    {
                        "element": "O",
                        "occu": 1
                    }
                ],
                "abc": [
                    0.67272896,
                    0.67272896,
                    0.67272896
                ],
                "xyz": [
                    0.0,
                    -6.660016702575433e-07,
                    14.367444406467975
                ],
                "label": "O",
                "properties": {}
            },
            {
                "species": [
                    {
                        "element": "O",
                        "occu": 1
                    }
                ],
                "abc": [
                    0.32727104,
                    0.32727104,
                    0.32727104
                ],
                "xyz": [
                    0.0,
                    -3.2399832949892016e-07,
                    6.989513983532025
                ],
                "label": "O",
                "properties": {}
            },
            {
                "species": [
                    {
                        "element": "O",
                        "occu": 1
                    }
                ],
                "abc": [
                    0.23916131,
                    0.72807214,
                    0.72807214
                ],
                "xyz": [
                    -1.410302666013248,
                    -0.8142390604647176,
                    12.068856981321467
                ],
                "label": "O",
                "properties": {}
            },
            {
                "species": [
                    {
                        "element": "O",
                        "occu": 1
                    }
                ],
                "abc": [
                    0.72807214,
                    0.72807214,
                    0.23916131
                ],
                "xyz": [
                    0.0,
                    1.6284764425769014,
                    12.068856981321465
                ],
                "label": "O",
                "properties": {}
            },
            {
                "species": [
                    {
                        "element": "O",
                        "occu": 1
                    }
                ],
                "abc": [
                    0.72807214,
                    0.23916131,
                    0.72807214
                ],
                "xyz": [
                    1.410302666013248,
                    -0.8142390604647176,
                    12.068856981321467
                ],
                "label": "O",
                "properties": {}
            },
            {
                "species": [
                    {
                        "element": "O",
                        "occu": 1
                    }
                ],
                "abc": [
                    0.76083869,
                    0.27192786,
                    0.27192786
                ],
                "xyz": [
                    1.4103026660132483,
                    0.8142380704647179,
                    9.288101408678534
                ],
                "label": "O",
                "properties": {}
            },
            {
                "species": [
                    {
                        "element": "O",
                        "occu": 1
                    }
                ],
                "abc": [
                    0.27192786,
                    0.76083869,
                    0.27192786
                ],
                "xyz": [
                    -1.4103026660132483,
                    0.8142380704647179,
                    9.288101408678534
                ],
                "label": "O",
                "properties": {}
            },
            {
                "species": [
                    {
                        "element": "O",
                        "occu": 1
                    }
                ],
                "abc": [
                    0.27192786,
                    0.27192786,
                    0.76083869
                ],
                "xyz": [
                    0.0,
                    -1.6284774325769011,
                    9.288101408678534
                ],
                "label": "O",
                "properties": {}
            }
        ]
    },
    "spacegroup": {
        "source": "spglib",
        "symbol": "R-3m",
        "number": 166,
        "point_group": "-3m",
        "crystal_system": "trigonal",
        "hall": "-R 3 2\""
    },
    "dielectric": {
        "epsilon_ionic": [
            [
                59.07370886,
                -2e-08,
                -2e-08
            ],
            [
                -2e-08,
                59.07349294,
                -2.41e-06
            ],
            [
                -2e-08,
                -2.41e-06,
                6.26634226
            ]
        ],
        "epsilon_ionic_avg": 41.471181353333336,
        "epsilon_ionic_eig": [
            6.266342259999888,
            59.07370886000184,
            59.073492939998275
        ],
        "epsilon_electronic": [
            [
                3.98794317,
                0.0,
                0.0
            ],
            [
                -0.0,
                3.98794458,
                -1.9e-07
            ],
            [
                -0.0,
                -1.9e-07,
                4.03776869
            ]
        ],
        "epsilon_electronic_avg": 4.004552146666667,
        "epsilon_electronic_eig": [
            4.037768690000725,
            3.9879445799992754,
            3.98794317
        ]
    },
    "phonon": {
        "lowest_freq": -0.017422142506825545,
        "frequency": [
            -0.017422142506825545,
            -0.01252204560171265,
            -0.012522043386466173,
            0.6095501693620141,
            0.6095502716046701,
            2.737967350932654,
            3.0354557903669552,
            3.0354563177410405,
            3.0692578818528116,
            3.069258419344546,
            3.215216152853014,
            3.3735396011534564,
            3.8047501585622987,
            3.8047508137646173,
            4.063104429016842,
            4.864963522986564,
            4.864964226301518,
            4.96214434472164,
            4.962144960383185,
            4.9910554184652325,
            5.439096948971974,
            9.375025567238444,
            9.375025619376997,
            9.72782310536255,
            9.727823984696407,
            10.108749281059342,
            10.108749317324975,
            10.551004364484202,
            10.59552210503988,
            10.595523177625584,
            11.866789024172135,
            23.545795433331207,
            23.54579839156778,
            23.67879512715406,
            23.67879817198948,
            23.951075061789467,
            24.35710238716626,
            25.072944501479594,
            25.075184050504365
        ]
    },
    "born_effective_charge": {
        "avg_abs_trace": 2.3759076923076923,
        "tensors": [
            [
                [
                    2.83288,
                    -4e-05,
                    0.00021
                ],
                [
                    -0.0,
                    2.83297,
                    8e-05
                ],
                [
                    0.0,
                    0.0,
                    3.48807
                ]
            ],
            [
                [
                    2.83288,
                    4e-05,
                    -0.00021
                ],
                [
                    -0.0,
                    2.83273,
                    -0.0001
                ],
                [
                    0.0,
                    0.0,
                    3.48846
                ]
            ],
            [
                [
                    2.91079,
                    -0.0,
                    -0.0
                ],
                [
                    -0.0,
                    2.91078,
                    0.0
                ],
                [
                    0.0,
                    0.0,
                    2.44752
                ]
            ],
            [
                [
                    3.2469,
                    0.00031,
                    7e-05
                ],
                [
                    -0.0,
                    3.24682,
                    -0.0001
                ],
                [
                    0.0,
                    -0.0,
                    3.38289
                ]
            ],
            [
                [
                    3.2469,
                    -0.00031,
                    -7e-05
                ],
                [
                    -0.0,
                    3.24701,
                    9e-05
                ],
                [
                    0.0,
                    -0.0,
                    3.38261
                ]
            ],
            [
                [
                    -0.96039,
                    -1e-05,
                    3e-05
                ],
                [
                    -0.0,
                    -0.96031,
                    0.0
                ],
                [
                    0.0,
                    0.0,
                    -3.49462
                ]
            ],
            [
                [
                    -0.96039,
                    1e-05,
                    -3e-05
                ],
                [
                    -0.0,
                    -0.96046,
                    2e-05
                ],
                [
                    0.0,
                    0.0,
                    -3.49479
                ]
            ],
            [
                [
                    -2.6283,
                    -0.75646,
                    -0.56441
                ],
                [
                    -0.75616,
                    -1.75497,
                    -0.32576
                ],
                [
                    -0.60193,
                    -0.34752,
                    -1.53341
                ]
            ],
            [
                [
                    -1.31841,
                    -5e-05,
                    1e-05
                ],
                [
                    -0.0,
                    -3.06442,
                    0.65166
                ],
                [
                    0.0,
                    0.69505,
                    -1.53341
                ]
            ],
            [
                [
                    -2.62807,
                    0.75593,
                    0.56421
                ],
                [
                    0.75616,
                    -1.75497,
                    -0.32576
                ],
                [
                    0.60193,
                    -0.34752,
                    -1.53341
                ]
            ],
            [
                [
                    -2.62807,
                    -0.75593,
                    -0.56421
                ],
                [
                    -0.75625,
                    -1.75501,
                    -0.32586
                ],
                [
                    -0.60204,
                    -0.34759,
                    -1.5333
                ]
            ],
            [
                [
                    -2.6283,
                    0.75646,
                    0.56441
                ],
                [
                    0.75625,
                    -1.75501,
                    -0.32586
                ],
                [
                    0.60204,
                    -0.34759,
                    -1.5333
                ]
            ],
            [
                [
                    -1.31841,
                    5e-05,
                    -1e-05
                ],
                [
                    -0.0,
                    -3.06516,
                    0.65158
                ],
                [
                    0.0,
                    0.69517,
                    -1.5333
                ]
            ]
        ]
    },
    "band_gap": 3.8402000000000003,
    "is_direct": false,
    "formula": "Ba3V2O8"
}