{
    "mp_id": "mp-18137",
    "nelements": 3,
    "nsites": 28,
    "elements": [
        "O",
        "Ta",
        "V"
    ],
    "structure": {
        "@module": "pymatgen.core.structure",
        "@class": "Structure",
        "charge": null,
        "lattice": {
            "matrix": [
                [
                    11.97025847,
                    0.0,
                    0.0
                ],
                [
                    0.0,
                    5.57328016,
                    0.0
                ],
                [
                    0.0,
                    0.0,
                    6.99847744
                ]
            ],
            "a": 11.97025847,
            "b": 5.57328016,
            "c": 6.99847744,
            "alpha": 90.0,
            "beta": 90.0,
            "gamma": 90.0,
            "volume": 466.8936528214922
        },
        "sites": [
            {
                "species": [
                    {
                        "element": "Ta",
                        "occu": 1
                    }
                ],
                "abc": [
                    0.55851747,
                    0.25,
                    0.15896567
                ],
                "xyz": [
                    6.68559847591047,
                    1.39332004,
                    1.1125176552294849
                ],
                "label": "Ta",
                "properties": {}
            },
            {
                "species": [
                    {
                        "element": "Ta",
                        "occu": 1
                    }
                ],
                "abc": [
                    0.44148253,
                    0.75,
                    0.84103433
                ],
                "xyz": [
                    5.2846599940895285,
                    4.1799601200000005,
                    5.885959784770516
                ],
                "label": "Ta",
                "properties": {}
            },
            {
                "species": [
                    {
                        "element": "Ta",
                        "occu": 1
                    }
                ],
                "abc": [
                    0.94148253,
                    0.75,
                    0.65896567
                ],
                "xyz": [
                    11.269789229089529,
                    4.1799601200000005,
                    4.611756375229485
                ],
                "label": "Ta",
                "properties": {}
            },
            {
                "species": [
                    {
                        "element": "Ta",
                        "occu": 1
                    }
                ],
                "abc": [
                    0.05851747,
                    0.25,
                    0.34103433
                ],
                "xyz": [
                    0.7004692409104709,
                    1.39332004,
                    2.3867210647705153
                ],
                "label": "Ta",
                "properties": {}
            },
            {
                "species": [
                    {
                        "element": "V",
                        "occu": 1
                    }
                ],
                "abc": [
                    0.84506193,
                    0.25,
                    0.97001458
                ],
                "xyz": [
                    10.115609725257046,
                    1.39332004,
                    6.788625154601075
                ],
                "label": "V",
                "properties": {}
            },
            {
                "species": [
                    {
                        "element": "V",
                        "occu": 1
                    }
                ],
                "abc": [
                    0.15493807,
                    0.75,
                    0.02998542
                ],
                "xyz": [
                    1.854648744742953,
                    4.1799601200000005,
                    0.2098522853989248
                ],
                "label": "V",
                "properties": {}
            },
            {
                "species": [
                    {
                        "element": "V",
                        "occu": 1
                    }
                ],
                "abc": [
                    0.65493807,
                    0.75,
                    0.47001458
                ],
                "xyz": [
                    7.839777979742953,
                    4.1799601200000005,
                    3.2893864346010755
                ],
                "label": "V",
                "properties": {}
            },
            {
                "species": [
                    {
                        "element": "V",
                        "occu": 1
                    }
                ],
                "abc": [
                    0.34506193,
                    0.25,
                    0.52998542
                ],
                "xyz": [
                    4.130480490257047,
                    1.39332004,
                    3.7090910053989252
                ],
                "label": "V",
                "properties": {}
            },
            {
                "species": [
                    {
                        "element": "O",
                        "occu": 1
                    }
                ],
                "abc": [
                    0.92138896,
                    0.25,
                    0.17886747
                ],
                "xyz": [
                    11.02926400260449,
                    1.39332004,
                    1.251799953544877
                ],
                "label": "O",
                "properties": {}
            },
            {
                "species": [
                    {
                        "element": "O",
                        "occu": 1
                    }
                ],
                "abc": [
                    0.07861104,
                    0.75,
                    0.82113253
                ],
                "xyz": [
                    0.9409944673955086,
                    4.1799601200000005,
                    5.746677486455123
                ],
                "label": "O",
                "properties": {}
            },
            {
                "species": [
                    {
                        "element": "O",
                        "occu": 1
                    }
                ],
                "abc": [
                    0.57861104,
                    0.75,
                    0.67886747
                ],
                "xyz": [
                    6.926123702395508,
                    4.1799601200000005,
                    4.751038673544877
                ],
                "label": "O",
                "properties": {}
            },
            {
                "species": [
                    {
                        "element": "O",
                        "occu": 1
                    }
                ],
                "abc": [
                    0.42138896,
                    0.25,
                    0.32113253
                ],
                "xyz": [
                    5.044134767604491,
                    1.39332004,
                    2.2474387664551236
                ],
                "label": "O",
                "properties": {}
            },
            {
                "species": [
                    {
                        "element": "O",
                        "occu": 1
                    }
                ],
                "abc": [
                    0.70387685,
                    0.25,
                    0.02463338
                ],
                "xyz": [
                    8.42558782554942,
                    1.39332004,
                    0.1723961542009472
                ],
                "label": "O",
                "properties": {}
            },
            {
                "species": [
                    {
                        "element": "O",
                        "occu": 1
                    }
                ],
                "abc": [
                    0.29612315,
                    0.75,
                    0.97536662
                ],
                "xyz": [
                    3.5446706444505804,
                    4.1799601200000005,
                    6.826081285799053
                ],
                "label": "O",
                "properties": {}
            },
            {
                "species": [
                    {
                        "element": "O",
                        "occu": 1
                    }
                ],
                "abc": [
                    0.79612315,
                    0.75,
                    0.52463338
                ],
                "xyz": [
                    9.52979987945058,
                    4.1799601200000005,
                    3.6716348742009477
                ],
                "label": "O",
                "properties": {}
            },
            {
                "species": [
                    {
                        "element": "O",
                        "occu": 1
                    }
                ],
                "abc": [
                    0.20387685,
                    0.25,
                    0.47536662
                ],
                "xyz": [
                    2.440458590549419,
                    1.39332004,
                    3.326842565799053
                ],
                "label": "O",
                "properties": {}
            },
            {
                "species": [
                    {
                        "element": "O",
                        "occu": 1
                    }
                ],
                "abc": [
                    0.0,
                    0.0,
                    0.5
                ],
                "xyz": [
                    0.0,
                    0.0,
                    3.49923872
                ],
                "label": "O",
                "properties": {}
            },
            {
                "species": [
                    {
                        "element": "O",
                        "occu": 1
                    }
                ],
                "abc": [
                    0.0,
                    0.5,
                    0.5
                ],
                "xyz": [
                    0.0,
                    2.78664008,
                    3.49923872
                ],
                "label": "O",
                "properties": {}
            },
            {
                "species": [
                    {
                        "element": "O",
                        "occu": 1
                    }
                ],
                "abc": [
                    0.5,
                    0.0,
                    0.0
                ],
                "xyz": [
                    5.985129235,
                    0.0,
                    0.0
                ],
                "label": "O",
                "properties": {}
            },
            {
                "species": [
                    {
                        "element": "O",
                        "occu": 1
                    }
                ],
                "abc": [
                    0.5,
                    0.5,
                    0.0
                ],
                "xyz": [
                    5.985129235,
                    2.78664008,
                    0.0
                ],
                "label": "O",
                "properties": {}
            },
            {
                "species": [
                    {
                        "element": "O",
                        "occu": 1
                    }
                ],
                "abc": [
                    0.12326458,
                    0.00130502,
                    0.15864429
                ],
                "xyz": [
                    1.4755088827959926,
                    0.007273242074403201,
                    1.1102684845498176
                ],
                "label": "O",
                "properties": {}
            },
            {
                "species": [
                    {
                        "element": "O",
                        "occu": 1
                    }
                ],
                "abc": [
                    0.87673542,
                    0.50130502,
                    0.84135571
                ],
                "xyz": [
                    10.494749587204007,
                    2.7939133220744035,
                    5.888208955450183
                ],
                "label": "O",
                "properties": {}
            },
            {
                "species": [
                    {
                        "element": "O",
                        "occu": 1
                    }
                ],
                "abc": [
                    0.37673542,
                    0.99869498,
                    0.65864429
                ],
                "xyz": [
                    4.509620352204007,
                    5.5660069179255975,
                    4.609507204549818
                ],
                "label": "O",
                "properties": {}
            },
            {
                "species": [
                    {
                        "element": "O",
                        "occu": 1
                    }
                ],
                "abc": [
                    0.62326458,
                    0.49869498,
                    0.34135571
                ],
                "xyz": [
                    7.460638117795992,
                    2.779366837925597,
                    2.3889702354501825
                ],
                "label": "O",
                "properties": {}
            },
            {
                "species": [
                    {
                        "element": "O",
                        "occu": 1
                    }
                ],
                "abc": [
                    0.87673542,
                    0.99869498,
                    0.84135571
                ],
                "xyz": [
                    10.494749587204007,
                    5.5660069179255975,
                    5.888208955450183
                ],
                "label": "O",
                "properties": {}
            },
            {
                "species": [
                    {
                        "element": "O",
                        "occu": 1
                    }
                ],
                "abc": [
                    0.12326458,
                    0.49869498,
                    0.15864429
                ],
                "xyz": [
                    1.4755088827959926,
                    2.779366837925597,
                    1.1102684845498176
                ],
                "label": "O",
                "properties": {}
            },
            {
                "species": [
                    {
                        "element": "O",
                        "occu": 1
                    }
                ],
                "abc": [
                    0.62326458,
                    0.00130502,
                    0.34135571
                ],
                "xyz": [
                    7.460638117795992,
                    0.007273242074403201,
                    2.3889702354501825
                ],
                "label": "O",
                "properties": {}
            },
            {
                "species": [
                    {
                        "element": "O",
                        "occu": 1
                    }
                ],
                "abc": [
                    0.37673542,
                    0.50130502,
                    0.65864429
                ],
                "xyz": [
                    4.509620352204007,
                    2.7939133220744035,
                    4.609507204549818
                ],
                "label": "O",
                "properties": {}
            }
        ]
    },
    "spacegroup": {
        "source": "spglib",
        "symbol": "Pnma",
        "number": 62,
        "point_group": "mmm",
        "crystal_system": "orthorhombic",
        "hall": "-P 2ac 2n"
    },
    "dielectric": {
        "epsilon_ionic": [
            [
                13.4765459,
                2e-08,
                -0.0
            ],
            [
                2e-08,
                18.80806616,
                7e-08
            ],
            [
                -0.0,
                7e-08,
                14.35997054
            ]
        ],
        "epsilon_ionic_avg": 15.548194200000003,
        "epsilon_ionic_eig": [
            13.476545900000001,
            18.808066160000006,
            14.359970539999999
        ],
        "epsilon_electronic": [
            [
                4.68964649,
                0.0,
                0.0
            ],
            [
                0.0,
                4.61283621,
                -0.0
            ],
            [
                0.0,
                0.0,
                4.55944527
            ]
        ],
        "epsilon_electronic_avg": 4.620642656666667,
        "epsilon_electronic_eig": [
            4.68964649,
            4.61283621,
            4.55944527
        ]
    },
    "phonon": {
        "lowest_freq": -0.1647536134360147,
        "frequency": [
            -0.1647536134360147,
            -0.09933395772819048,
            -0.031784320775595246,
            1.3160207807500433,
            1.7219568864944421,
            1.8682771474147586,
            2.021670205640753,
            2.11373466458426,
            3.030426235186496,
            3.1305469285805807,
            3.2151244487468653,
            3.308919101190387,
            3.9037759029429466,
            4.318809058296818,
            4.333870031418045,
            4.677973124026069,
            4.910589740016213,
            5.300897984962123,
            5.454450039101347,
            5.505297054212251,
            5.508653587964809,
            5.597205570267508,
            5.615262611624338,
            5.858930990596022,
            5.925469341361455,
            6.0273902393748875,
            6.083623094006644,
            6.263699578234169,
            6.383561483650102,
            6.849483529916698,
            7.020076027459454,
            7.084859046577737,
            7.541848994315207,
            7.5466846511490235,
            7.750838801579611,
            7.822798598474963,
            8.110152750194088,
            8.18470172540855,
            8.227644314656366,
            8.53675764144143,
            8.99198567381134,
            9.264254244099112,
            9.269327514025473,
            9.353851691486646,
            9.522910776921314,
            9.559484865854582,
            9.684787247181976,
            10.036290249767948,
            10.126093684360367,
            10.304189277989096,
            10.954158059818676,
            11.012390494481489,
            11.029319911073614,
            11.129615624157843,
            11.279265815220366,
            11.336489942390513,
            11.350276408480532,
            11.387453465822432,
            11.49581096316531,
            11.560431624209043,
            11.700886044470538,
            12.169344537565872,
            12.207707836595215,
            12.360431575512846,
            18.715520235083392,
            18.74449018942305,
            20.914527882979772,
            21.01683216164376,
            22.168584498546487,
            22.323814269320245,
            22.439574070056608,
            23.080952222758967,
            23.228163444645386,
            23.30175322812519,
            23.302797228714976,
            23.574576848409308,
            23.582826325331514,
            27.725584054288234,
            27.85360787563533,
            28.217130738088215,
            28.89835656235421,
            30.600988051772788,
            30.66286052505638,
            30.93498518785455
        ]
    },
    "born_effective_charge": {
        "avg_abs_trace": 4.008908333333333,
        "tensors": [
            [
                [
                    8.93541,
                    -0.0,
                    -0.39234
                ],
                [
                    0.00047,
                    9.47623,
                    0.00079
                ],
                [
                    -0.03107,
                    0.0,
                    9.20177
                ]
            ],
            [
                [
                    8.93544,
                    0.0,
                    -0.39228
                ],
                [
                    -0.00047,
                    9.47623,
                    -0.00079
                ],
                [
                    -0.03109,
                    0.0,
                    9.20149
                ]
            ],
            [
                [
                    8.93544,
                    0.0,
                    0.39228
                ],
                [
                    -0.00047,
                    9.47623,
                    0.00079
                ],
                [
                    0.03107,
                    0.0,
                    9.20177
                ]
            ],
            [
                [
                    8.93541,
                    0.0,
                    0.39234
                ],
                [
                    0.00047,
                    9.47623,
                    -0.00079
                ],
                [
                    0.03109,
                    0.0,
                    9.20149
                ]
            ],
            [
                [
                    5.1838,
                    0.0,
                    0.23053
                ],
                [
                    -0.00044,
                    4.67804,
                    0.00139
                ],
                [
                    -0.6422,
                    0.0,
                    4.61847
                ]
            ],
            [
                [
                    5.18392,
                    0.0,
                    0.23036
                ],
                [
                    0.00044,
                    4.67804,
                    -0.00139
                ],
                [
                    -0.642,
                    0.0,
                    4.61822
                ]
            ],
            [
                [
                    5.18392,
                    -0.0,
                    -0.23036
                ],
                [
                    0.00044,
                    4.67804,
                    0.00139
                ],
                [
                    0.6422,
                    0.0,
                    4.61847
                ]
            ],
            [
                [
                    5.1838,
                    0.0,
                    -0.23053
                ],
                [
                    -0.00044,
                    4.67804,
                    -0.00139
                ],
                [
                    0.642,
                    0.0,
                    4.61822
                ]
            ],
            [
                [
                    -3.30166,
                    -0.0,
                    -2.72374
                ],
                [
                    -0.00011,
                    -0.80423,
                    -0.00021
                ],
                [
                    -2.57521,
                    0.0,
                    -3.60663
                ]
            ],
            [
                [
                    -3.30157,
                    0.0,
                    -2.72368
                ],
                [
                    0.00011,
                    -0.80423,
                    0.00021
                ],
                [
                    -2.57522,
                    0.0,
                    -3.60672
                ]
            ],
            [
                [
                    -3.30157,
                    0.0,
                    2.72368
                ],
                [
                    0.00011,
                    -0.80423,
                    -0.00021
                ],
                [
                    2.57521,
                    0.0,
                    -3.60663
                ]
            ],
            [
                [
                    -3.30166,
                    0.0,
                    2.72374
                ],
                [
                    -0.00011,
                    -0.80423,
                    0.00021
                ],
                [
                    2.57522,
                    0.0,
                    -3.60672
                ]
            ],
            [
                [
                    -6.27351,
                    -0.0,
                    1.97296
                ],
                [
                    0.00015,
                    -0.78119,
                    1e-05
                ],
                [
                    2.11529,
                    0.0,
                    -1.60649
                ]
            ],
            [
                [
                    -6.27375,
                    -0.0,
                    1.97315
                ],
                [
                    -0.00015,
                    -0.78119,
                    -1e-05
                ],
                [
                    2.11506,
                    0.0,
                    -1.60664
                ]
            ],
            [
                [
                    -6.27375,
                    0.0,
                    -1.97315
                ],
                [
                    -0.00015,
                    -0.78119,
                    1e-05
                ],
                [
                    -2.11529,
                    0.0,
                    -1.60649
                ]
            ],
            [
                [
                    -6.27351,
                    0.0,
                    -1.97296
                ],
                [
                    0.00015,
                    -0.78119,
                    -1e-05
                ],
                [
                    -2.11506,
                    0.0,
                    -1.60664
                ]
            ],
            [
                [
                    -2.14075,
                    -1.68921,
                    1.2948
                ],
                [
                    -1.55796,
                    -4.549,
                    2.52007
                ],
                [
                    1.33893,
                    2.70916,
                    -3.4889
                ]
            ],
            [
                [
                    -2.14075,
                    1.68921,
                    1.2948
                ],
                [
                    1.55796,
                    -4.549,
                    -2.52007
                ],
                [
                    1.33893,
                    -2.70916,
                    -3.4889
                ]
            ],
            [
                [
                    -2.14075,
                    -1.68921,
                    -1.2948
                ],
                [
                    -1.55796,
                    -4.549,
                    -2.52007
                ],
                [
                    -1.33893,
                    -2.70916,
                    -3.4889
                ]
            ],
            [
                [
                    -2.14075,
                    1.68921,
                    -1.2948
                ],
                [
                    1.55796,
                    -4.549,
                    2.52007
                ],
                [
                    -1.33893,
                    2.70916,
                    -3.4889
                ]
            ],
            [
                [
                    -1.20166,
                    1.00423,
                    0.71357
                ],
                [
                    1.25291,
                    -4.01042,
                    -2.4401
                ],
                [
                    0.90347,
                    -2.31078,
                    -2.55879
                ]
            ],
            [
                [
                    -1.20163,
                    -1.00439,
                    0.71361
                ],
                [
                    -1.25291,
                    -4.01042,
                    2.4401
                ],
                [
                    0.90351,
                    2.31079,
                    -2.55904
                ]
            ],
            [
                [
                    -1.20163,
                    1.00439,
                    -0.71361
                ],
                [
                    1.25377,
                    -4.00945,
                    2.44219
                ],
                [
                    -0.90347,
                    2.31078,
                    -2.55879
                ]
            ],
            [
                [
                    -1.20166,
                    -1.00423,
                    -0.71357
                ],
                [
                    -1.25377,
                    -4.00945,
                    -2.44219
                ],
                [
                    -0.90351,
                    -2.31079,
                    -2.55904
                ]
            ],
            [
                [
                    -1.20163,
                    1.00439,
                    0.71361
                ],
                [
                    1.25377,
                    -4.00945,
                    -2.44219
                ],
                [
                    0.90351,
                    -2.31079,
                    -2.55904
                ]
            ],
            [
                [
                    -1.20166,
                    -1.00423,
                    0.71357
                ],
                [
                    -1.25377,
                    -4.00945,
                    2.44219
                ],
                [
                    0.90347,
                    2.31078,
                    -2.55879
                ]
            ],
            [
                [
                    -1.20166,
                    1.00423,
                    -0.71357
                ],
                [
                    1.25291,
                    -4.01042,
                    2.4401
                ],
                [
                    -0.90351,
                    2.31079,
                    -2.55904
                ]
            ],
            [
                [
                    -1.20163,
                    -1.00439,
                    -0.71361
                ],
                [
                    -1.25291,
                    -4.01042,
                    -2.4401
                ],
                [
                    -0.90347,
                    -2.31078,
                    -2.55879
                ]
            ]
        ]
    },
    "band_gap": 2.2842000000000002,
    "is_direct": false,
    "formula": "TaVO5"
}