{
    "mp_id": "mp-1209133",
    "nelements": 4,
    "nsites": 24,
    "elements": [
        "O",
        "Rb",
        "W",
        "Y"
    ],
    "structure": {
        "@module": "pymatgen.core.structure",
        "@class": "Structure",
        "charge": null,
        "lattice": {
            "matrix": [
                [
                    5.35590645,
                    -5.23624639,
                    -0.00047217
                ],
                [
                    5.35590645,
                    5.23624639,
                    -0.00047217
                ],
                [
                    -4.80417985,
                    0.0,
                    5.66732603
                ]
            ],
            "a": 7.490261035563723,
            "b": 7.490261035563723,
            "c": 7.4295846695129315,
            "alpha": 117.54332840814709,
            "beta": 117.54332840814709,
            "gamma": 88.70550849169643,
            "volume": 317.8548136842207
        },
        "sites": [
            {
                "species": [
                    {
                        "element": "Rb",
                        "occu": 1
                    }
                ],
                "abc": [
                    0.20109387,
                    0.79890613,
                    0.75
                ],
                "xyz": [
                    1.7527715625000004,
                    3.1302922883227406,
                    4.2500223525
                ],
                "label": "Rb",
                "properties": {}
            },
            {
                "species": [
                    {
                        "element": "Rb",
                        "occu": 1
                    }
                ],
                "abc": [
                    0.79890613,
                    0.20109387,
                    0.25
                ],
                "xyz": [
                    4.1548614875,
                    -3.1302922883227406,
                    1.4163593374999999
                ],
                "label": "Rb",
                "properties": {}
            },
            {
                "species": [
                    {
                        "element": "Y",
                        "occu": 1
                    }
                ],
                "abc": [
                    0.77369276,
                    0.22630724,
                    0.75
                ],
                "xyz": [
                    1.7527715625000004,
                    -2.866245453038273,
                    4.2500223525
                ],
                "label": "Y",
                "properties": {}
            },
            {
                "species": [
                    {
                        "element": "Y",
                        "occu": 1
                    }
                ],
                "abc": [
                    0.22630724,
                    0.77369276,
                    0.25
                ],
                "xyz": [
                    4.1548614875,
                    2.866245453038273,
                    1.4163593374999999
                ],
                "label": "Y",
                "properties": {}
            },
            {
                "species": [
                    {
                        "element": "W",
                        "occu": 1
                    }
                ],
                "abc": [
                    0.30900582,
                    0.30079272,
                    0.77672749
                ],
                "xyz": [
                    -0.46551462281249334,
                    -0.04300581522570868,
                    4.401679993716932
                ],
                "label": "W",
                "properties": {}
            },
            {
                "species": [
                    {
                        "element": "W",
                        "occu": 1
                    }
                ],
                "abc": [
                    0.69099418,
                    0.69920728,
                    0.22327251
                ],
                "xyz": [
                    6.373147672812493,
                    0.04300581522570868,
                    1.264701696283067
                ],
                "label": "W",
                "properties": {}
            },
            {
                "species": [
                    {
                        "element": "W",
                        "occu": 1
                    }
                ],
                "abc": [
                    0.69920728,
                    0.69099418,
                    0.72327251
                ],
                "xyz": [
                    3.9710577478124938,
                    -0.04300581522570868,
                    4.098364711283067
                ],
                "label": "W",
                "properties": {}
            },
            {
                "species": [
                    {
                        "element": "W",
                        "occu": 1
                    }
                ],
                "abc": [
                    0.30079272,
                    0.30900582,
                    0.27672749
                ],
                "xyz": [
                    1.9365753021875063,
                    0.04300581522570868,
                    1.5680169787169331
                ],
                "label": "W",
                "properties": {}
            },
            {
                "species": [
                    {
                        "element": "O",
                        "occu": 1
                    }
                ],
                "abc": [
                    0.24510354,
                    0.37875276,
                    0.5588418
                ],
                "xyz": [
                    0.6565394661454054,
                    0.6998202457513159,
                    3.1668441135628833
                ],
                "label": "O",
                "properties": {}
            },
            {
                "species": [
                    {
                        "element": "O",
                        "occu": 1
                    }
                ],
                "abc": [
                    0.75489646,
                    0.62124724,
                    0.4411582
                ],
                "xyz": [
                    5.251093583854596,
                    -0.6998202457513156,
                    2.4995375764371173
                ],
                "label": "O",
                "properties": {}
            },
            {
                "species": [
                    {
                        "element": "O",
                        "occu": 1
                    }
                ],
                "abc": [
                    0.62124724,
                    0.75489646,
                    0.9411582
                ],
                "xyz": [
                    2.8490036588545964,
                    0.6998202457513156,
                    5.333200591437117
                ],
                "label": "O",
                "properties": {}
            },
            {
                "species": [
                    {
                        "element": "O",
                        "occu": 1
                    }
                ],
                "abc": [
                    0.37875276,
                    0.24510354,
                    0.0588418
                ],
                "xyz": [
                    3.0586293911454057,
                    -0.6998202457513159,
                    0.33318109856288297
                ],
                "label": "O",
                "properties": {}
            },
            {
                "species": [
                    {
                        "element": "O",
                        "occu": 1
                    }
                ],
                "abc": [
                    0.93999921,
                    0.62639734,
                    0.87540338
                ],
                "xyz": [
                    4.1838781065848565,
                    -1.6420966596847486,
                    4.960456756764967
                ],
                "label": "O",
                "properties": {}
            },
            {
                "species": [
                    {
                        "element": "O",
                        "occu": 1
                    }
                ],
                "abc": [
                    0.06000079,
                    0.37360266,
                    0.12459662
                ],
                "xyz": [
                    1.7237549434151458,
                    1.642096659684749,
                    0.7059249332350321
                ],
                "label": "O",
                "properties": {}
            },
            {
                "species": [
                    {
                        "element": "O",
                        "occu": 1
                    }
                ],
                "abc": [
                    0.37360266,
                    0.06000079,
                    0.62459662
                ],
                "xyz": [
                    -0.6783349815848543,
                    -1.642096659684749,
                    3.5395879482350323
                ],
                "label": "O",
                "properties": {}
            },
            {
                "species": [
                    {
                        "element": "O",
                        "occu": 1
                    }
                ],
                "abc": [
                    0.62639734,
                    0.93999921,
                    0.37540338
                ],
                "xyz": [
                    6.585968031584856,
                    1.6420966596847486,
                    2.126793741764968
                ],
                "label": "O",
                "properties": {}
            },
            {
                "species": [
                    {
                        "element": "O",
                        "occu": 1
                    }
                ],
                "abc": [
                    0.6296039,
                    0.40954845,
                    0.96716537
                ],
                "xyz": [
                    0.919166391725863,
                    -1.1522645556623252,
                    5.480750820150482
                ],
                "label": "O",
                "properties": {}
            },
            {
                "species": [
                    {
                        "element": "O",
                        "occu": 1
                    }
                ],
                "abc": [
                    0.3703961,
                    0.59045155,
                    0.03283463
                ],
                "xyz": [
                    4.988466658274137,
                    1.1522645556623257,
                    0.1856308698495184
                ],
                "label": "O",
                "properties": {}
            },
            {
                "species": [
                    {
                        "element": "O",
                        "occu": 1
                    }
                ],
                "abc": [
                    0.59045155,
                    0.3703961,
                    0.53283463
                ],
                "xyz": [
                    2.5863767332741374,
                    -1.1522645556623257,
                    3.0192938848495183
                ],
                "label": "O",
                "properties": {}
            },
            {
                "species": [
                    {
                        "element": "O",
                        "occu": 1
                    }
                ],
                "abc": [
                    0.40954845,
                    0.6296039,
                    0.46716537
                ],
                "xyz": [
                    3.321256316725863,
                    1.1522645556623252,
                    2.647087805150482
                ],
                "label": "O",
                "properties": {}
            },
            {
                "species": [
                    {
                        "element": "O",
                        "occu": 1
                    }
                ],
                "abc": [
                    0.04531899,
                    0.21673984,
                    0.69342845
                ],
                "xyz": [
                    -1.9277924090302785,
                    0.8976018069832314,
                    3.929761368309792
                ],
                "label": "O",
                "properties": {}
            },
            {
                "species": [
                    {
                        "element": "O",
                        "occu": 1
                    }
                ],
                "abc": [
                    0.95468101,
                    0.78326016,
                    0.30657155
                ],
                "xyz": [
                    7.835425459030279,
                    -0.8976018069832321,
                    1.7366203216902076
                ],
                "label": "O",
                "properties": {}
            },
            {
                "species": [
                    {
                        "element": "O",
                        "occu": 1
                    }
                ],
                "abc": [
                    0.78326016,
                    0.95468101,
                    0.80657155
                ],
                "xyz": [
                    5.433335534030279,
                    0.8976018069832321,
                    4.570283336690208
                ],
                "label": "O",
                "properties": {}
            },
            {
                "species": [
                    {
                        "element": "O",
                        "occu": 1
                    }
                ],
                "abc": [
                    0.21673984,
                    0.04531899,
                    0.19342845
                ],
                "xyz": [
                    0.47429751596972114,
                    -0.8976018069832314,
                    1.0960983533097923
                ],
                "label": "O",
                "properties": {}
            }
        ]
    },
    "spacegroup": {
        "source": "spglib",
        "symbol": "C2/c",
        "number": 15,
        "point_group": "2/m",
        "crystal_system": "monoclinic",
        "hall": "-C 2yc"
    },
    "dielectric": {
        "epsilon_ionic": [
            [
                13.7120883,
                -0.0,
                -3.08181446
            ],
            [
                -0.0,
                8.52980796,
                1e-08
            ],
            [
                -3.08181446,
                1e-08,
                11.14489673
            ]
        ],
        "epsilon_ionic_avg": 11.128930996666666,
        "epsilon_ionic_eig": [
            15.766935041858122,
            9.090049988141876,
            8.52980796
        ],
        "epsilon_electronic": [
            [
                4.72622436,
                0.0,
                -0.23149772
            ],
            [
                0.0,
                4.27366779,
                0.0
            ],
            [
                -0.23151027,
                0.0,
                4.76617067
            ]
        ],
        "epsilon_electronic_avg": 4.588687606666667,
        "epsilon_electronic_eig": [
            4.513833519118025,
            4.978561510881975,
            4.27366779
        ]
    },
    "phonon": {
        "lowest_freq": -0.022815930522606706,
        "frequency": [
            -0.022815930522606706,
            -0.015987352167990156,
            -0.010886075491264377,
            1.9540260476258424,
            2.3911983803385097,
            2.6714026171859873,
            2.754133712723015,
            2.763455410614598,
            2.8597685706589613,
            2.8779771787541493,
            3.168910975606899,
            3.2331176343400436,
            3.451938268471592,
            3.809773333678504,
            4.037714785724223,
            4.25556457208925,
            4.463810411497262,
            4.50658087382708,
            4.858933901540698,
            5.073096419799928,
            5.186978969506544,
            5.438366273803407,
            5.511331281175647,
            6.277617016339026,
            6.368292721353252,
            6.41655996174533,
            6.620647415883792,
            6.646351083957498,
            7.155947551223209,
            7.290599765663808,
            7.453161029598658,
            8.146526962445897,
            8.478414080008266,
            8.595866993414617,
            8.697961616649533,
            8.866408450849386,
            9.113652236342169,
            9.178855465098087,
            9.318041736908821,
            9.635340291067363,
            9.749228081166812,
            9.918562357414022,
            10.104192081397917,
            10.493844750543602,
            11.351241821329285,
            11.528526737926562,
            11.67568086388304,
            11.77593552730051,
            12.329432678325986,
            12.953259548645912,
            13.101725588940846,
            13.109607153023186,
            13.724311113310474,
            13.949836520973266,
            15.302515219873063,
            15.404754727014407,
            17.207918440731852,
            17.426982943092753,
            19.033131973403073,
            19.19703870440808,
            19.29486313512915,
            19.44863440745938,
            21.153106211261377,
            21.294528325862572,
            21.632357140339675,
            21.781100746556252,
            22.244702159370245,
            23.507154481191073,
            24.290713649750725,
            25.494169524661203,
            25.793910464737255,
            26.292616449016382
        ]
    },
    "born_effective_charge": {
        "avg_abs_trace": 3.1167409722222224,
        "tensors": [
            [
                [
                    1.18925,
                    -4e-05,
                    0.10054
                ],
                [
                    -0.0,
                    1.48411,
                    0.0
                ],
                [
                    0.09038,
                    1e-05,
                    1.21755
                ]
            ],
            [
                [
                    1.18925,
                    4e-05,
                    0.10054
                ],
                [
                    -0.0,
                    1.48428,
                    0.0
                ],
                [
                    0.09038,
                    -1e-05,
                    1.21755
                ]
            ],
            [
                [
                    4.50007,
                    2e-05,
                    -0.21505
                ],
                [
                    0.0,
                    5.54865,
                    0.0
                ],
                [
                    -0.03058,
                    -0.00019,
                    4.3251
                ]
            ],
            [
                [
                    4.50007,
                    -2e-05,
                    -0.21505
                ],
                [
                    -0.0,
                    5.54853,
                    0.0
                ],
                [
                    -0.03058,
                    0.00019,
                    4.3251
                ]
            ],
            [
                [
                    6.94375,
                    0.51931,
                    -0.66534
                ],
                [
                    -0.44244,
                    5.04975,
                    0.46831
                ],
                [
                    -0.76673,
                    -0.09843,
                    6.92501
                ]
            ],
            [
                [
                    6.94364,
                    0.51957,
                    -0.66484
                ],
                [
                    -0.44251,
                    5.04971,
                    0.46801
                ],
                [
                    -0.76692,
                    -0.09873,
                    6.92474
                ]
            ],
            [
                [
                    6.94364,
                    -0.51957,
                    -0.66484
                ],
                [
                    0.44244,
                    5.04975,
                    -0.46831
                ],
                [
                    -0.76692,
                    0.09873,
                    6.92474
                ]
            ],
            [
                [
                    6.94375,
                    -0.51931,
                    -0.66534
                ],
                [
                    0.44251,
                    5.04971,
                    -0.46801
                ],
                [
                    -0.76673,
                    0.09843,
                    6.92501
                ]
            ],
            [
                [
                    -2.79008,
                    -0.50457,
                    2.05936
                ],
                [
                    -0.20541,
                    -1.12253,
                    0.20943
                ],
                [
                    1.93078,
                    0.53024,
                    -3.23175
                ]
            ],
            [
                [
                    -2.79006,
                    -0.50432,
                    2.05876
                ],
                [
                    -0.20539,
                    -1.12251,
                    0.20943
                ],
                [
                    1.93082,
                    0.52988,
                    -3.23131
                ]
            ],
            [
                [
                    -2.79006,
                    0.50432,
                    2.05876
                ],
                [
                    0.20541,
                    -1.12253,
                    -0.20943
                ],
                [
                    1.93082,
                    -0.52988,
                    -3.23131
                ]
            ],
            [
                [
                    -2.79008,
                    0.50457,
                    2.05936
                ],
                [
                    0.20539,
                    -1.12251,
                    -0.20943
                ],
                [
                    1.93078,
                    -0.53024,
                    -3.23175
                ]
            ],
            [
                [
                    -1.35595,
                    0.47495,
                    -0.24458
                ],
                [
                    0.14938,
                    -2.96545,
                    1.26911
                ],
                [
                    -0.25525,
                    1.4897,
                    -2.31393
                ]
            ],
            [
                [
                    -1.35577,
                    0.47479,
                    -0.24437
                ],
                [
                    0.14948,
                    -2.96508,
                    1.26897
                ],
                [
                    -0.25516,
                    1.48981,
                    -2.31384
                ]
            ],
            [
                [
                    -1.35577,
                    -0.47479,
                    -0.24437
                ],
                [
                    -0.14938,
                    -2.96545,
                    -1.26911
                ],
                [
                    -0.25516,
                    -1.48981,
                    -2.31384
                ]
            ],
            [
                [
                    -1.35595,
                    -0.47495,
                    -0.24458
                ],
                [
                    -0.14948,
                    -2.96508,
                    -1.26897
                ],
                [
                    -0.25525,
                    -1.4897,
                    -2.31393
                ]
            ],
            [
                [
                    -2.16909,
                    0.29068,
                    -0.75883
                ],
                [
                    0.38744,
                    -2.50977,
                    -0.72792
                ],
                [
                    -0.58797,
                    -0.67889,
                    -2.84506
                ]
            ],
            [
                [
                    -2.1689,
                    0.29087,
                    -0.75863
                ],
                [
                    0.38775,
                    -2.50997,
                    -0.72774
                ],
                [
                    -0.5882,
                    -0.6792,
                    -2.84539
                ]
            ],
            [
                [
                    -2.1689,
                    -0.29087,
                    -0.75863
                ],
                [
                    -0.38744,
                    -2.50977,
                    0.72792
                ],
                [
                    -0.5882,
                    0.6792,
                    -2.84539
                ]
            ],
            [
                [
                    -2.16909,
                    -0.29068,
                    -0.75883
                ],
                [
                    -0.38775,
                    -2.50997,
                    0.72774
                ],
                [
                    -0.58797,
                    0.67889,
                    -2.84506
                ]
            ],
            [
                [
                    -3.47351,
                    1.67634,
                    -0.33342
                ],
                [
                    1.51769,
                    -1.96857,
                    0.32479
                ],
                [
                    -0.35066,
                    0.51496,
                    -1.30565
                ]
            ],
            [
                [
                    -3.47333,
                    1.67624,
                    -0.33363
                ],
                [
                    1.51781,
                    -1.96836,
                    0.32505
                ],
                [
                    -0.35053,
                    0.51483,
                    -1.30546
                ]
            ],
            [
                [
                    -3.47333,
                    -1.67624,
                    -0.33363
                ],
                [
                    -1.51769,
                    -1.96857,
                    -0.32479
                ],
                [
                    -0.35053,
                    -0.51483,
                    -1.30546
                ]
            ],
            [
                [
                    -3.47351,
                    -1.67634,
                    -0.33342
                ],
                [
                    -1.51781,
                    -1.96836,
                    -0.32505
                ],
                [
                    -0.35066,
                    -0.51496,
                    -1.30565
                ]
            ]
        ]
    },
    "band_gap": 3.4491,
    "is_direct": false,
    "formula": "RbY(WO4)2"
}