{
    "mp_id": "mp-16978",
    "nelements": 4,
    "nsites": 30,
    "elements": [
        "Ba",
        "Mg",
        "O",
        "Sb"
    ],
    "structure": {
        "@module": "pymatgen.core.structure",
        "@class": "Structure",
        "charge": null,
        "lattice": {
            "matrix": [
                [
                    5.85014433,
                    -0.0,
                    0.0
                ],
                [
                    -2.92507266,
                    5.06637364,
                    0.0
                ],
                [
                    0.0,
                    0.0,
                    14.47122874
                ]
            ],
            "a": 5.85014433,
            "b": 5.850144607303851,
            "c": 14.47122874,
            "alpha": 90.0,
            "beta": 90.0,
            "gamma": 120.00000402995155,
            "volume": 428.9129949788247
        },
        "sites": [
            {
                "species": [
                    {
                        "element": "Ba",
                        "occu": 1
                    }
                ],
                "abc": [
                    0.333333,
                    0.666667,
                    0.58812322
                ],
                "xyz": [
                    -3.2550723301216777e-06,
                    3.3775841154578803,
                    8.510865643925342
                ],
                "label": "Ba",
                "properties": {}
            },
            {
                "species": [
                    {
                        "element": "Ba",
                        "occu": 1
                    }
                ],
                "abc": [
                    0.666667,
                    0.333333,
                    0.08812322
                ],
                "xyz": [
                    2.9250749250723302,
                    1.68878952454212,
                    1.275251273925343
                ],
                "label": "Ba",
                "properties": {}
            },
            {
                "species": [
                    {
                        "element": "Ba",
                        "occu": 1
                    }
                ],
                "abc": [
                    0.666667,
                    0.333333,
                    0.41187678
                ],
                "xyz": [
                    2.9250749250723302,
                    1.68878952454212,
                    5.960363096074658
                ],
                "label": "Ba",
                "properties": {}
            },
            {
                "species": [
                    {
                        "element": "Ba",
                        "occu": 1
                    }
                ],
                "abc": [
                    0.333333,
                    0.666667,
                    0.91187678
                ],
                "xyz": [
                    -3.2550723301216777e-06,
                    3.3775841154578803,
                    13.195977466074659
                ],
                "label": "Ba",
                "properties": {}
            },
            {
                "species": [
                    {
                        "element": "Ba",
                        "occu": 1
                    }
                ],
                "abc": [
                    0.0,
                    0.0,
                    0.75
                ],
                "xyz": [
                    0.0,
                    0.0,
                    10.853421555
                ],
                "label": "Ba",
                "properties": {}
            },
            {
                "species": [
                    {
                        "element": "Ba",
                        "occu": 1
                    }
                ],
                "abc": [
                    0.0,
                    0.0,
                    0.25
                ],
                "xyz": [
                    0.0,
                    0.0,
                    3.617807185
                ],
                "label": "Ba",
                "properties": {}
            },
            {
                "species": [
                    {
                        "element": "Mg",
                        "occu": 1
                    }
                ],
                "abc": [
                    0.0,
                    0.0,
                    0.0
                ],
                "xyz": [
                    0.0,
                    0.0,
                    0.0
                ],
                "label": "Mg",
                "properties": {}
            },
            {
                "species": [
                    {
                        "element": "Mg",
                        "occu": 1
                    }
                ],
                "abc": [
                    0.0,
                    0.0,
                    0.5
                ],
                "xyz": [
                    0.0,
                    0.0,
                    7.23561437
                ],
                "label": "Mg",
                "properties": {}
            },
            {
                "species": [
                    {
                        "element": "Sb",
                        "occu": 1
                    }
                ],
                "abc": [
                    0.666667,
                    0.333333,
                    0.65130862
                ],
                "xyz": [
                    2.9250749250723302,
                    1.68878952454212,
                    9.42523602035374
                ],
                "label": "Sb",
                "properties": {}
            },
            {
                "species": [
                    {
                        "element": "Sb",
                        "occu": 1
                    }
                ],
                "abc": [
                    0.333333,
                    0.666667,
                    0.15130862
                ],
                "xyz": [
                    -3.2550723301216777e-06,
                    3.3775841154578803,
                    2.189621650353739
                ],
                "label": "Sb",
                "properties": {}
            },
            {
                "species": [
                    {
                        "element": "Sb",
                        "occu": 1
                    }
                ],
                "abc": [
                    0.666667,
                    0.333333,
                    0.84869138
                ],
                "xyz": [
                    2.9250749250723302,
                    1.68878952454212,
                    12.281607089646261
                ],
                "label": "Sb",
                "properties": {}
            },
            {
                "species": [
                    {
                        "element": "Sb",
                        "occu": 1
                    }
                ],
                "abc": [
                    0.333333,
                    0.666667,
                    0.34869138
                ],
                "xyz": [
                    -3.2550723301216777e-06,
                    3.3775841154578803,
                    5.045992719646262
                ],
                "label": "Sb",
                "properties": {}
            },
            {
                "species": [
                    {
                        "element": "O",
                        "occu": 1
                    }
                ],
                "abc": [
                    0.16809541,
                    0.83190459,
                    0.08333278
                ],
                "xyz": [
                    -1.4499989622269842,
                    4.214739485771008,
                    1.2059277209200971
                ],
                "label": "O",
                "properties": {}
            },
            {
                "species": [
                    {
                        "element": "O",
                        "occu": 1
                    }
                ],
                "abc": [
                    0.16809541,
                    0.33619183,
                    0.08333278
                ],
                "xyz": [
                    -3.1207378426989507e-06,
                    1.7032734254953614,
                    1.2059277209200971
                ],
                "label": "O",
                "properties": {}
            },
            {
                "species": [
                    {
                        "element": "O",
                        "occu": 1
                    }
                ],
                "abc": [
                    0.66380817,
                    0.83190459,
                    0.08333278
                ],
                "xyz": [
                    1.449992229995667,
                    4.214739485771008,
                    1.2059277209200971
                ],
                "label": "O",
                "properties": {}
            },
            {
                "species": [
                    {
                        "element": "O",
                        "occu": 1
                    }
                ],
                "abc": [
                    0.33619183,
                    0.16809541,
                    0.58333278
                ],
                "xyz": [
                    1.4750794400043334,
                    0.8516341542289925,
                    8.441542090920098
                ],
                "label": "O",
                "properties": {}
            },
            {
                "species": [
                    {
                        "element": "O",
                        "occu": 1
                    }
                ],
                "abc": [
                    0.83190459,
                    0.66380817,
                    0.91666722
                ],
                "xyz": [
                    2.9250747907378427,
                    3.363100214504639,
                    13.265301019079903
                ],
                "label": "O",
                "properties": {}
            },
            {
                "species": [
                    {
                        "element": "O",
                        "occu": 1
                    }
                ],
                "abc": [
                    0.83190459,
                    0.16809541,
                    0.58333278
                ],
                "xyz": [
                    4.375070632226985,
                    0.8516341542289925,
                    8.441542090920098
                ],
                "label": "O",
                "properties": {}
            },
            {
                "species": [
                    {
                        "element": "O",
                        "occu": 1
                    }
                ],
                "abc": [
                    0.83190459,
                    0.66380817,
                    0.58333278
                ],
                "xyz": [
                    2.9250747907378427,
                    3.363100214504639,
                    8.441542090920098
                ],
                "label": "O",
                "properties": {}
            },
            {
                "species": [
                    {
                        "element": "O",
                        "occu": 1
                    }
                ],
                "abc": [
                    0.16809541,
                    0.83190459,
                    0.41666722
                ],
                "xyz": [
                    -1.4499989622269842,
                    4.214739485771008,
                    6.0296866490799035
                ],
                "label": "O",
                "properties": {}
            },
            {
                "species": [
                    {
                        "element": "O",
                        "occu": 1
                    }
                ],
                "abc": [
                    0.66380817,
                    0.83190459,
                    0.41666722
                ],
                "xyz": [
                    1.449992229995667,
                    4.214739485771008,
                    6.0296866490799035
                ],
                "label": "O",
                "properties": {}
            },
            {
                "species": [
                    {
                        "element": "O",
                        "occu": 1
                    }
                ],
                "abc": [
                    0.33619183,
                    0.16809541,
                    0.91666722
                ],
                "xyz": [
                    1.4750794400043334,
                    0.8516341542289925,
                    13.265301019079903
                ],
                "label": "O",
                "properties": {}
            },
            {
                "species": [
                    {
                        "element": "O",
                        "occu": 1
                    }
                ],
                "abc": [
                    0.83190459,
                    0.16809541,
                    0.91666722
                ],
                "xyz": [
                    4.375070632226985,
                    0.8516341542289925,
                    13.265301019079903
                ],
                "label": "O",
                "properties": {}
            },
            {
                "species": [
                    {
                        "element": "O",
                        "occu": 1
                    }
                ],
                "abc": [
                    0.16809541,
                    0.33619183,
                    0.41666722
                ],
                "xyz": [
                    -3.1207378426989507e-06,
                    1.7032734254953614,
                    6.0296866490799035
                ],
                "label": "O",
                "properties": {}
            },
            {
                "species": [
                    {
                        "element": "O",
                        "occu": 1
                    }
                ],
                "abc": [
                    0.48292044,
                    0.96584188,
                    0.25
                ],
                "xyz": [
                    -3.4031638955767107e-06,
                    4.893315841240043,
                    3.617807185
                ],
                "label": "O",
                "properties": {}
            },
            {
                "species": [
                    {
                        "element": "O",
                        "occu": 1
                    }
                ],
                "abc": [
                    0.51707956,
                    0.48292044,
                    0.75
                ],
                "xyz": [
                    1.6124126800937242,
                    2.4466553874332018,
                    10.853421555
                ],
                "label": "O",
                "properties": {}
            },
            {
                "species": [
                    {
                        "element": "O",
                        "occu": 1
                    }
                ],
                "abc": [
                    0.96584188,
                    0.48292044,
                    0.75
                ],
                "xyz": [
                    4.23773702195937,
                    2.4466553874332018,
                    10.853421555
                ],
                "label": "O",
                "properties": {}
            },
            {
                "species": [
                    {
                        "element": "O",
                        "occu": 1
                    }
                ],
                "abc": [
                    0.03415812,
                    0.51707956,
                    0.25
                ],
                "xyz": [
                    -1.31266535195937,
                    2.6197182525667984,
                    3.617807185
                ],
                "label": "O",
                "properties": {}
            },
            {
                "species": [
                    {
                        "element": "O",
                        "occu": 1
                    }
                ],
                "abc": [
                    0.48292044,
                    0.51707956,
                    0.25
                ],
                "xyz": [
                    1.3126589899062757,
                    2.6197182525667984,
                    3.617807185
                ],
                "label": "O",
                "properties": {}
            },
            {
                "species": [
                    {
                        "element": "O",
                        "occu": 1
                    }
                ],
                "abc": [
                    0.51707956,
                    0.03415812,
                    0.75
                ],
                "xyz": [
                    2.9250750731638955,
                    0.1730577987599568,
                    10.853421555
                ],
                "label": "O",
                "properties": {}
            }
        ]
    },
    "spacegroup": {
        "source": "spglib",
        "symbol": "P6_3/mmc",
        "number": 194,
        "point_group": "6/mmm",
        "crystal_system": "hexagonal",
        "hall": "-P 6c 2c"
    },
    "dielectric": {
        "epsilon_ionic": [
            [
                12.88339338,
                -0.0,
                0.0
            ],
            [
                -0.0,
                12.88335585,
                0.0
            ],
            [
                0.0,
                0.0,
                17.84304241
            ]
        ],
        "epsilon_ionic_avg": 14.536597213333332,
        "epsilon_ionic_eig": [
            12.88339338,
            12.88335585,
            17.84304241
        ],
        "epsilon_electronic": [
            [
                3.96082283,
                -0.0,
                0.0
            ],
            [
                -0.0,
                3.96082389,
                0.0
            ],
            [
                0.0,
                0.0,
                4.09251757
            ]
        ],
        "epsilon_electronic_avg": 4.00472143,
        "epsilon_electronic_eig": [
            3.96082283,
            3.96082389,
            4.09251757
        ]
    },
    "phonon": {
        "lowest_freq": -0.021458859726531634,
        "frequency": [
            -0.021458859726531634,
            -0.021458856879221118,
            -0.003433558610667112,
            1.537351743773934,
            1.5373519051333113,
            1.673364700842695,
            1.673364919922357,
            1.689101899732871,
            1.6891021240060062,
            2.055827978813091,
            2.3838340786271344,
            2.6430784102260927,
            2.7551678027410627,
            2.836636955578323,
            2.8618031767731127,
            2.94619897970456,
            3.0989422152881168,
            3.098942629332819,
            3.1208308335287347,
            3.1208312133444402,
            3.190963837209919,
            3.19096425846215,
            3.4762847401619856,
            3.4762851725375894,
            3.576593312971623,
            3.576593719554249,
            3.620157631107482,
            3.6201581104349025,
            3.769171031085447,
            3.986358793648999,
            4.235402856877312,
            4.951541124996092,
            4.951541544542447,
            5.3682297927409115,
            5.724061252442623,
            5.724061529972989,
            6.164102876719054,
            6.164103451628625,
            6.612308048276861,
            6.743049377859362,
            6.743049867163454,
            6.828349468265168,
            6.853762675854197,
            7.895270088859875,
            7.895270274591428,
            8.209271641193615,
            8.2092721026477,
            8.318196116091878,
            8.40895622317878,
            9.012614873551142,
            9.0126160260474,
            9.130494784830645,
            9.130494932051661,
            9.258137851900237,
            9.258139039828674,
            9.32683743283654,
            9.326837773488093,
            9.388419699987791,
            10.300980124855473,
            10.61789666645994,
            11.168220671905976,
            11.168221678548472,
            11.332132617314645,
            11.373013762760573,
            11.373014837234432,
            12.236764225448095,
            12.364358775429839,
            12.364358973094864,
            12.467313727980828,
            12.467313904410267,
            14.379518709009625,
            14.379519167912568,
            14.40390934862736,
            14.403909815237038,
            15.177894445352216,
            17.06827875191565,
            17.79324861995818,
            17.87692282001059,
            19.230401067994862,
            19.2304020211736,
            19.273258682934227,
            19.273259633993394,
            20.11444547850759,
            20.114446389793432,
            20.13765171647765,
            20.13765256603097,
            21.349591387931387,
            22.406902044273096,
            22.656457842764265,
            22.801541028962024
        ]
    },
    "born_effective_charge": {
        "avg_abs_trace": 2.508350666666667,
        "tensors": [
            [
                [
                    2.83959,
                    -0.00015,
                    -3e-05
                ],
                [
                    0.0,
                    2.83957,
                    7e-05
                ],
                [
                    -0.0,
                    -0.0,
                    2.77559
                ]
            ],
            [
                [
                    2.83959,
                    0.00015,
                    -3e-05
                ],
                [
                    0.0,
                    2.83953,
                    1e-05
                ],
                [
                    -0.0,
                    -0.0,
                    2.77559
                ]
            ],
            [
                [
                    2.83959,
                    0.00015,
                    3e-05
                ],
                [
                    0.0,
                    2.83953,
                    -1e-05
                ],
                [
                    -0.0,
                    -0.0,
                    2.77562
                ]
            ],
            [
                [
                    2.83959,
                    -0.00015,
                    3e-05
                ],
                [
                    0.0,
                    2.83957,
                    -7e-05
                ],
                [
                    -0.0,
                    -0.0,
                    2.77562
                ]
            ],
            [
                [
                    2.81828,
                    0.00017,
                    0.0
                ],
                [
                    0.0,
                    2.81832,
                    -0.0
                ],
                [
                    -0.0,
                    -0.0,
                    2.44544
                ]
            ],
            [
                [
                    2.81828,
                    -0.00017,
                    0.0
                ],
                [
                    0.0,
                    2.81833,
                    -0.0
                ],
                [
                    -0.0,
                    -0.0,
                    2.44544
                ]
            ],
            [
                [
                    2.54788,
                    -0.0,
                    0.0
                ],
                [
                    0.0,
                    2.54787,
                    -3e-05
                ],
                [
                    -0.0,
                    -0.0,
                    2.59285
                ]
            ],
            [
                [
                    2.54788,
                    -0.0,
                    0.0
                ],
                [
                    0.0,
                    2.54787,
                    3e-05
                ],
                [
                    -0.0,
                    -0.0,
                    2.59285
                ]
            ],
            [
                [
                    3.6586,
                    -5e-05,
                    -5e-05
                ],
                [
                    0.0,
                    3.65859,
                    -3e-05
                ],
                [
                    -0.0,
                    -0.0,
                    4.56176
                ]
            ],
            [
                [
                    3.6586,
                    5e-05,
                    -5e-05
                ],
                [
                    0.0,
                    3.65855,
                    -0.00011
                ],
                [
                    -0.0,
                    -0.0,
                    4.56176
                ]
            ],
            [
                [
                    3.6586,
                    -5e-05,
                    5e-05
                ],
                [
                    0.0,
                    3.65859,
                    3e-05
                ],
                [
                    -0.0,
                    -0.0,
                    4.56166
                ]
            ],
            [
                [
                    3.6586,
                    5e-05,
                    5e-05
                ],
                [
                    0.0,
                    3.65855,
                    0.00011
                ],
                [
                    -0.0,
                    -0.0,
                    4.56166
                ]
            ],
            [
                [
                    -2.24366,
                    0.21838,
                    -0.25539
                ],
                [
                    0.21824,
                    -1.99141,
                    0.14731
                ],
                [
                    -0.32695,
                    0.18876,
                    -2.10694
                ]
            ],
            [
                [
                    -1.86513,
                    -0.00025,
                    -4e-05
                ],
                [
                    0.0,
                    -2.36976,
                    -0.29505
                ],
                [
                    -0.0,
                    -0.37753,
                    -2.10694
                ]
            ],
            [
                [
                    -2.24385,
                    -0.21842,
                    0.2554
                ],
                [
                    -0.21824,
                    -1.99141,
                    0.14731
                ],
                [
                    0.32695,
                    0.18876,
                    -2.10694
                ]
            ],
            [
                [
                    -2.24366,
                    -0.21838,
                    -0.25539
                ],
                [
                    -0.21845,
                    -1.99149,
                    -0.14752
                ],
                [
                    -0.32695,
                    -0.18876,
                    -2.10694
                ]
            ],
            [
                [
                    -1.86513,
                    0.00025,
                    4e-05
                ],
                [
                    -0.0,
                    -2.36983,
                    -0.29501
                ],
                [
                    -0.0,
                    -0.37765,
                    -2.10681
                ]
            ],
            [
                [
                    -2.24385,
                    0.21842,
                    0.2554
                ],
                [
                    0.21845,
                    -1.99149,
                    -0.14752
                ],
                [
                    0.32695,
                    -0.18876,
                    -2.10694
                ]
            ],
            [
                [
                    -1.86513,
                    0.00025,
                    -4e-05
                ],
                [
                    -0.0,
                    -2.36983,
                    0.29501
                ],
                [
                    0.0,
                    0.37753,
                    -2.10694
                ]
            ],
            [
                [
                    -2.24366,
                    0.21838,
                    0.25539
                ],
                [
                    0.21824,
                    -1.99141,
                    -0.14731
                ],
                [
                    0.32705,
                    -0.18883,
                    -2.10681
                ]
            ],
            [
                [
                    -2.24385,
                    -0.21842,
                    -0.2554
                ],
                [
                    -0.21824,
                    -1.99141,
                    -0.14731
                ],
                [
                    -0.32705,
                    -0.18883,
                    -2.10681
                ]
            ],
            [
                [
                    -2.24366,
                    -0.21838,
                    0.25539
                ],
                [
                    -0.21845,
                    -1.99149,
                    0.14752
                ],
                [
                    0.32705,
                    0.18883,
                    -2.10681
                ]
            ],
            [
                [
                    -2.24385,
                    0.21842,
                    -0.2554
                ],
                [
                    0.21845,
                    -1.99149,
                    0.14752
                ],
                [
                    -0.32705,
                    0.18883,
                    -2.10681
                ]
            ],
            [
                [
                    -1.86513,
                    -0.00025,
                    4e-05
                ],
                [
                    0.0,
                    -2.36976,
                    0.29505
                ],
                [
                    -0.0,
                    0.37765,
                    -2.10681
                ]
            ],
            [
                [
                    -1.70564,
                    0.00035,
                    0.0
                ],
                [
                    0.0,
                    -2.06543,
                    -0.0
                ],
                [
                    -0.0,
                    4e-05,
                    -2.35722
                ]
            ],
            [
                [
                    -1.97577,
                    0.15572,
                    0.0
                ],
                [
                    0.15559,
                    -1.79575,
                    -0.0
                ],
                [
                    -3e-05,
                    2e-05,
                    -2.35722
                ]
            ],
            [
                [
                    -1.97585,
                    -0.15584,
                    0.0
                ],
                [
                    -0.15559,
                    -1.79575,
                    -0.0
                ],
                [
                    3e-05,
                    2e-05,
                    -2.35722
                ]
            ],
            [
                [
                    -1.97577,
                    -0.15572,
                    0.0
                ],
                [
                    -0.15585,
                    -1.79578,
                    -0.0
                ],
                [
                    -3e-05,
                    -2e-05,
                    -2.35722
                ]
            ],
            [
                [
                    -1.97585,
                    0.15584,
                    0.0
                ],
                [
                    0.15585,
                    -1.79578,
                    -0.0
                ],
                [
                    3e-05,
                    -2e-05,
                    -2.35722
                ]
            ],
            [
                [
                    -1.70564,
                    -0.00035,
                    0.0
                ],
                [
                    -0.0,
                    -2.0656,
                    -0.0
                ],
                [
                    0.0,
                    -4e-05,
                    -2.35722
                ]
            ]
        ]
    },
    "band_gap": 2.8577999999999997,
    "is_direct": true,
    "formula": "Ba3MgSb2O9"
}