{
    "mp_id": "mp-1178450",
    "nelements": 3,
    "nsites": 30,
    "elements": [
        "Cs",
        "Ge",
        "O"
    ],
    "structure": {
        "@module": "pymatgen.core.structure",
        "@class": "Structure",
        "charge": null,
        "lattice": {
            "matrix": [
                [
                    7.1534619,
                    0.0,
                    -0.00136012
                ],
                [
                    0.0,
                    9.78517368,
                    0.0
                ],
                [
                    -6.92370765,
                    0.0,
                    9.84592957
                ]
            ],
            "a": 7.153462029302876,
            "b": 9.78517368,
            "c": 12.03661317481246,
            "alpha": 90.0,
            "beta": 125.12597513875915,
            "gamma": 90.0,
            "volume": 689.1019218664162
        },
        "sites": [
            {
                "species": [
                    {
                        "element": "Cs",
                        "occu": 1
                    }
                ],
                "abc": [
                    0.39272391,
                    0.21718082,
                    0.27706678
                ],
                "xyz": [
                    0.8910061431571621,
                    2.1251520436648175,
                    2.7274458504222157
                ],
                "label": "Cs",
                "properties": {}
            },
            {
                "species": [
                    {
                        "element": "Cs",
                        "occu": 1
                    }
                ],
                "abc": [
                    0.03235005,
                    0.35420088,
                    0.91366409
                ],
                "xyz": [
                    -6.094528199325193,
                    3.4659171284088384,
                    8.995828280828135
                ],
                "label": "Cs",
                "properties": {}
            },
            {
                "species": [
                    {
                        "element": "Cs",
                        "occu": 1
                    }
                ],
                "abc": [
                    0.79185717,
                    0.47373459,
                    0.54359933
                ],
                "xyz": [
                    1.9007972561809487,
                    4.635575241373592,
                    5.351163696705128
                ],
                "label": "Cs",
                "properties": {}
            },
            {
                "species": [
                    {
                        "element": "Cs",
                        "occu": 1
                    }
                ],
                "abc": [
                    0.20814283,
                    0.97373459,
                    0.95640067
                ],
                "xyz": [
                    -5.132896831180949,
                    9.52816208137359,
                    9.416370538294872
                ],
                "label": "Cs",
                "properties": {}
            },
            {
                "species": [
                    {
                        "element": "Cs",
                        "occu": 1
                    }
                ],
                "abc": [
                    0.60727609,
                    0.71718082,
                    0.22293322
                ],
                "xyz": [
                    2.8006019318428383,
                    7.017738883664818,
                    2.194158814577784
                ],
                "label": "Cs",
                "properties": {}
            },
            {
                "species": [
                    {
                        "element": "Cs",
                        "occu": 1
                    }
                ],
                "abc": [
                    0.96764995,
                    0.85420088,
                    0.58633591
                ],
                "xyz": [
                    2.8624286243251937,
                    8.358503968408838,
                    5.771705954171864
                ],
                "label": "Cs",
                "properties": {}
            },
            {
                "species": [
                    {
                        "element": "Cs",
                        "occu": 1
                    }
                ],
                "abc": [
                    0.03235005,
                    0.14579912,
                    0.41366409
                ],
                "xyz": [
                    -2.6326743743251932,
                    1.4266697115911615,
                    4.072863495828135
                ],
                "label": "Cs",
                "properties": {}
            },
            {
                "species": [
                    {
                        "element": "Cs",
                        "occu": 1
                    }
                ],
                "abc": [
                    0.39272391,
                    0.28281918,
                    0.77706678
                ],
                "xyz": [
                    -2.5708476818428374,
                    2.7674347963351824,
                    7.650410635422214
                ],
                "label": "Cs",
                "properties": {}
            },
            {
                "species": [
                    {
                        "element": "Cs",
                        "occu": 1
                    }
                ],
                "abc": [
                    0.79185717,
                    0.02626541,
                    0.04359933
                ],
                "xyz": [
                    5.362651081180949,
                    0.25701159862640877,
                    0.42819891170512764
                ],
                "label": "Cs",
                "properties": {}
            },
            {
                "species": [
                    {
                        "element": "Cs",
                        "occu": 1
                    }
                ],
                "abc": [
                    0.20814283,
                    0.52626541,
                    0.45640067
                ],
                "xyz": [
                    -1.6710430061809487,
                    5.149598438626409,
                    4.493405753294872
                ],
                "label": "Cs",
                "properties": {}
            },
            {
                "species": [
                    {
                        "element": "Cs",
                        "occu": 1
                    }
                ],
                "abc": [
                    0.96764995,
                    0.64579912,
                    0.08633591
                ],
                "xyz": [
                    6.324282449325193,
                    6.3192565515911605,
                    0.8487411691718646
                ],
                "label": "Cs",
                "properties": {}
            },
            {
                "species": [
                    {
                        "element": "Cs",
                        "occu": 1
                    }
                ],
                "abc": [
                    0.60727609,
                    0.78281918,
                    0.72293322
                ],
                "xyz": [
                    -0.6612518931571625,
                    7.660021636335181,
                    7.117123599577784
                ],
                "label": "Cs",
                "properties": {}
            },
            {
                "species": [
                    {
                        "element": "Ge",
                        "occu": 1
                    }
                ],
                "abc": [
                    0.67378101,
                    0.13578868,
                    0.62650063
                ],
                "xyz": [
                    0.4821595793176989,
                    1.3287158175779423,
                    6.167564655513308
                ],
                "label": "Ge",
                "properties": {}
            },
            {
                "species": [
                    {
                        "element": "Ge",
                        "occu": 1
                    }
                ],
                "abc": [
                    0.32621899,
                    0.63578868,
                    0.87349937
                ],
                "xyz": [
                    -3.7142591543176997,
                    6.221302657577942,
                    8.599969579486691
                ],
                "label": "Ge",
                "properties": {}
            },
            {
                "species": [
                    {
                        "element": "Ge",
                        "occu": 1
                    }
                ],
                "abc": [
                    0.67378101,
                    0.36421132,
                    0.12650063
                ],
                "xyz": [
                    3.9440134043176993,
                    3.5638710224220578,
                    1.244599870513308
                ],
                "label": "Ge",
                "properties": {}
            },
            {
                "species": [
                    {
                        "element": "Ge",
                        "occu": 1
                    }
                ],
                "abc": [
                    0.32621899,
                    0.86421132,
                    0.37349937
                ],
                "xyz": [
                    -0.25240532931769977,
                    8.456457862422058,
                    3.6770047944866917
                ],
                "label": "Ge",
                "properties": {}
            },
            {
                "species": [
                    {
                        "element": "O",
                        "occu": 1
                    }
                ],
                "abc": [
                    0.5,
                    0.0,
                    0.5
                ],
                "xyz": [
                    0.11487712500000002,
                    0.0,
                    4.922284725
                ],
                "label": "O",
                "properties": {}
            },
            {
                "species": [
                    {
                        "element": "O",
                        "occu": 1
                    }
                ],
                "abc": [
                    0.26308155,
                    0.919384,
                    0.21403776
                ],
                "xyz": [
                    0.4000089682170811,
                    8.99633211861312,
                    2.107042887802777
                ],
                "label": "O",
                "properties": {}
            },
            {
                "species": [
                    {
                        "element": "O",
                        "occu": 1
                    }
                ],
                "abc": [
                    0.50642586,
                    0.71657864,
                    0.43532644
                ],
                "xyz": [
                    0.608625091809468,
                    7.011846447778195,
                    4.285504668258127
                ],
                "label": "O",
                "properties": {}
            },
            {
                "species": [
                    {
                        "element": "O",
                        "occu": 1
                    }
                ],
                "abc": [
                    0.07616141,
                    0.65861757,
                    0.87146268
                ],
                "xyz": [
                    -5.488935079520223,
                    6.444687311149558,
                    8.580256581506477
                ],
                "label": "O",
                "properties": {}
            },
            {
                "species": [
                    {
                        "element": "O",
                        "occu": 1
                    }
                ],
                "abc": [
                    0.92383859,
                    0.15861757,
                    0.62853732
                ],
                "xyz": [
                    2.2568355045202235,
                    1.5521004711495576,
                    6.1872776534935205
                ],
                "label": "O",
                "properties": {}
            },
            {
                "species": [
                    {
                        "element": "O",
                        "occu": 1
                    }
                ],
                "abc": [
                    0.49357414,
                    0.21657864,
                    0.06467356
                ],
                "xyz": [
                    3.082982983190532,
                    2.119259607778195,
                    0.6360999967418723
                ],
                "label": "O",
                "properties": {}
            },
            {
                "species": [
                    {
                        "element": "O",
                        "occu": 1
                    }
                ],
                "abc": [
                    0.73691845,
                    0.419384,
                    0.28596224
                ],
                "xyz": [
                    3.291599106782919,
                    4.10374527861312,
                    2.814561777197222
                ],
                "label": "O",
                "properties": {}
            },
            {
                "species": [
                    {
                        "element": "O",
                        "occu": 1
                    }
                ],
                "abc": [
                    0.5,
                    0.5,
                    0.0
                ],
                "xyz": [
                    3.57673095,
                    4.89258684,
                    -0.00068006
                ],
                "label": "O",
                "properties": {}
            },
            {
                "species": [
                    {
                        "element": "O",
                        "occu": 1
                    }
                ],
                "abc": [
                    0.26308155,
                    0.580616,
                    0.71403776
                ],
                "xyz": [
                    -3.061844856782919,
                    5.68142840138688,
                    7.0300076728027765
                ],
                "label": "O",
                "properties": {}
            },
            {
                "species": [
                    {
                        "element": "O",
                        "occu": 1
                    }
                ],
                "abc": [
                    0.50642586,
                    0.78342136,
                    0.93532644
                ],
                "xyz": [
                    -2.8532287331905315,
                    7.665914072221804,
                    9.208469453258127
                ],
                "label": "O",
                "properties": {}
            },
            {
                "species": [
                    {
                        "element": "O",
                        "occu": 1
                    }
                ],
                "abc": [
                    0.07616141,
                    0.84138243,
                    0.37146268
                ],
                "xyz": [
                    -2.027081254520223,
                    8.233073208850442,
                    3.657291796506478
                ],
                "label": "O",
                "properties": {}
            },
            {
                "species": [
                    {
                        "element": "O",
                        "occu": 1
                    }
                ],
                "abc": [
                    0.92383859,
                    0.34138243,
                    0.12853732
                ],
                "xyz": [
                    5.718689329520223,
                    3.3404863688504425,
                    1.2643128684935216
                ],
                "label": "O",
                "properties": {}
            },
            {
                "species": [
                    {
                        "element": "O",
                        "occu": 1
                    }
                ],
                "abc": [
                    0.49357414,
                    0.28342136,
                    0.56467356
                ],
                "xyz": [
                    -0.37887084180946795,
                    2.773327232221805,
                    5.559064781741872
                ],
                "label": "O",
                "properties": {}
            },
            {
                "species": [
                    {
                        "element": "O",
                        "occu": 1
                    }
                ],
                "abc": [
                    0.73691845,
                    0.080616,
                    0.78596224
                ],
                "xyz": [
                    -0.17025471821708127,
                    0.7888415613868799,
                    7.737526562197223
                ],
                "label": "O",
                "properties": {}
            }
        ]
    },
    "spacegroup": {
        "source": "spglib",
        "symbol": "P2_1/c",
        "number": 14,
        "point_group": "2/m",
        "crystal_system": "monoclinic",
        "hall": "-P 2ybc"
    },
    "dielectric": {
        "epsilon_ionic": [
            [
                6.05102063,
                -5e-08,
                -0.45102207
            ],
            [
                -5e-08,
                6.57849689,
                -3e-08
            ],
            [
                -0.45102207,
                -3e-08,
                9.76929726
            ]
        ],
        "epsilon_ionic_avg": 7.466271593333335,
        "epsilon_ionic_eig": [
            9.823223549744995,
            5.997094340255003,
            6.5784968900000065
        ],
        "epsilon_electronic": [
            [
                3.27008459,
                0.0,
                0.00886828
            ],
            [
                0.0,
                3.28408923,
                0.0
            ],
            [
                0.00886801,
                0.0,
                3.25777629
            ]
        ],
        "epsilon_electronic_avg": 3.2706500366666673,
        "epsilon_electronic_eig": [
            3.274724769897928,
            3.253136110102072,
            3.28408923
        ]
    },
    "phonon": {
        "lowest_freq": -0.1779607324984084,
        "frequency": [
            -0.1779607324984084,
            -0.10365310358979724,
            -0.08746459371382398,
            0.37697296219328824,
            1.1371946813843783,
            1.1401072903037124,
            1.173295953356407,
            1.2876680748955731,
            1.392934810771572,
            1.4098135259408913,
            1.4272105532409582,
            1.4650660034450451,
            1.6336119966181264,
            1.6612612203271797,
            1.7198147142355082,
            1.754671502426049,
            1.7906431267240797,
            1.7931201601838462,
            1.8175882339312475,
            1.8593878212609423,
            1.961174239074572,
            1.9689555516807873,
            2.0077708068747655,
            2.0556159365897897,
            2.1073070509718437,
            2.1322841551768303,
            2.152798892829816,
            2.1554602943907337,
            2.1941390316938434,
            2.250152744101509,
            2.258346321867393,
            2.286872525405365,
            2.4383336855124953,
            2.5520601458846146,
            2.5947191523701436,
            2.6327579703580857,
            2.6702410488964565,
            2.7893494559652265,
            2.983617193918675,
            3.013911418596937,
            3.018289159260468,
            3.0447469906201348,
            3.112287271854494,
            3.13354354928398,
            3.2085820749936738,
            3.26357068580853,
            3.4944403995172344,
            3.496974763327044,
            3.5421428023777213,
            3.665315978158154,
            4.280003399899688,
            4.45917936470496,
            4.554671543300308,
            4.5697380038634385,
            5.9876458323556045,
            6.239381580931861,
            6.3280305187916825,
            6.612240667309969,
            6.726039048046513,
            6.814168905356485,
            7.291022641468958,
            7.327708146235041,
            7.618197619506684,
            7.797001803669493,
            8.725058326256512,
            8.783965531307887,
            8.84409540886985,
            9.082262952164072,
            9.276629884127921,
            9.384438849719926,
            9.494407042154632,
            9.60463087312285,
            9.924519941552845,
            10.061854188462,
            10.57030938537874,
            11.260817685532222,
            19.68470280260062,
            19.71818013154471,
            20.523384813724103,
            20.576821177752542,
            20.609583741813278,
            20.614389221641776,
            20.651778807042984,
            20.73292501488556,
            20.787326494657503,
            21.368854617740656,
            21.460711480323727,
            21.51104072583853,
            23.23543986002768,
            23.237122220511846
        ]
    },
    "born_effective_charge": {
        "avg_abs_trace": 1.8690024444444444,
        "tensors": [
            [
                [
                    1.3776,
                    0.12617,
                    -0.11489
                ],
                [
                    0.1517,
                    1.27526,
                    -0.09952
                ],
                [
                    -0.16437,
                    -0.11316,
                    1.31495
                ]
            ],
            [
                [
                    1.46783,
                    0.14367,
                    0.02189
                ],
                [
                    0.14182,
                    1.3704,
                    0.06696
                ],
                [
                    0.06823,
                    0.05636,
                    1.1923
                ]
            ],
            [
                [
                    1.28071,
                    0.06006,
                    0.05959
                ],
                [
                    0.08228,
                    1.53395,
                    -0.01844
                ],
                [
                    0.06478,
                    0.01982,
                    1.31807
                ]
            ],
            [
                [
                    1.28073,
                    -0.06002,
                    0.05966
                ],
                [
                    -0.08228,
                    1.53395,
                    0.01844
                ],
                [
                    0.06478,
                    -0.01988,
                    1.31802
                ]
            ],
            [
                [
                    1.37761,
                    -0.12614,
                    -0.11487
                ],
                [
                    -0.1517,
                    1.27526,
                    0.09952
                ],
                [
                    -0.1644,
                    0.11313,
                    1.31486
                ]
            ],
            [
                [
                    1.46778,
                    -0.14363,
                    0.0218
                ],
                [
                    -0.14182,
                    1.3704,
                    -0.06696
                ],
                [
                    0.06823,
                    -0.05638,
                    1.19239
                ]
            ],
            [
                [
                    1.46783,
                    -0.14367,
                    0.02189
                ],
                [
                    -0.14165,
                    1.3705,
                    -0.06692
                ],
                [
                    0.06823,
                    -0.05636,
                    1.1923
                ]
            ],
            [
                [
                    1.3776,
                    -0.12617,
                    -0.11489
                ],
                [
                    -0.15169,
                    1.27529,
                    0.09959
                ],
                [
                    -0.16437,
                    0.11316,
                    1.31495
                ]
            ],
            [
                [
                    1.28071,
                    -0.06006,
                    0.05959
                ],
                [
                    -0.0821,
                    1.53392,
                    0.01845
                ],
                [
                    0.06478,
                    -0.01982,
                    1.31807
                ]
            ],
            [
                [
                    1.28073,
                    0.06002,
                    0.05966
                ],
                [
                    0.0821,
                    1.53392,
                    -0.01845
                ],
                [
                    0.06478,
                    0.01988,
                    1.31802
                ]
            ],
            [
                [
                    1.46778,
                    0.14363,
                    0.0218
                ],
                [
                    0.14165,
                    1.3705,
                    0.06692
                ],
                [
                    0.06823,
                    0.05638,
                    1.19239
                ]
            ],
            [
                [
                    1.37761,
                    0.12614,
                    -0.11487
                ],
                [
                    0.15169,
                    1.27529,
                    -0.09959
                ],
                [
                    -0.1644,
                    -0.11313,
                    1.31486
                ]
            ],
            [
                [
                    2.75385,
                    0.08831,
                    0.10825
                ],
                [
                    0.07234,
                    3.03258,
                    0.21532
                ],
                [
                    0.07043,
                    0.18088,
                    3.10893
                ]
            ],
            [
                [
                    2.75351,
                    -0.08825,
                    0.10825
                ],
                [
                    -0.07234,
                    3.03258,
                    -0.21532
                ],
                [
                    0.07037,
                    -0.18089,
                    3.10899
                ]
            ],
            [
                [
                    2.75385,
                    -0.08831,
                    0.10825
                ],
                [
                    -0.0725,
                    3.03254,
                    -0.21531
                ],
                [
                    0.07043,
                    -0.18088,
                    3.10893
                ]
            ],
            [
                [
                    2.75351,
                    0.08825,
                    0.10825
                ],
                [
                    0.0725,
                    3.03254,
                    0.21531
                ],
                [
                    0.07037,
                    0.18089,
                    3.10899
                ]
            ],
            [
                [
                    -1.33657,
                    -0.36655,
                    -0.42448
                ],
                [
                    -0.33082,
                    -2.76393,
                    -1.17163
                ],
                [
                    -0.44789,
                    -1.10012,
                    -2.48065
                ]
            ],
            [
                [
                    -1.69917,
                    -0.04592,
                    0.22363
                ],
                [
                    0.01094,
                    -1.811,
                    0.22588
                ],
                [
                    0.30879,
                    0.29685,
                    -2.40703
                ]
            ],
            [
                [
                    -1.99123,
                    0.22868,
                    -0.12108
                ],
                [
                    0.33139,
                    -2.25519,
                    0.32581
                ],
                [
                    -0.0822,
                    0.20475,
                    -1.7308
                ]
            ],
            [
                [
                    -2.52023,
                    0.12723,
                    0.03472
                ],
                [
                    0.1903,
                    -1.76369,
                    0.03633
                ],
                [
                    -0.04127,
                    0.01617,
                    -1.55603
                ]
            ],
            [
                [
                    -2.52145,
                    -0.1274,
                    0.03461
                ],
                [
                    -0.1903,
                    -1.76369,
                    -0.03633
                ],
                [
                    -0.04171,
                    -0.01614,
                    -1.55605
                ]
            ],
            [
                [
                    -1.99148,
                    -0.22924,
                    -0.12119
                ],
                [
                    -0.33139,
                    -2.25519,
                    -0.32581
                ],
                [
                    -0.0825,
                    -0.20511,
                    -1.73099
                ]
            ],
            [
                [
                    -1.69947,
                    0.04609,
                    0.22411
                ],
                [
                    -0.01094,
                    -1.811,
                    -0.22588
                ],
                [
                    0.30873,
                    -0.29686,
                    -2.40694
                ]
            ],
            [
                [
                    -1.33657,
                    0.36655,
                    -0.42448
                ],
                [
                    0.33082,
                    -2.76393,
                    1.17163
                ],
                [
                    -0.44789,
                    1.10012,
                    -2.48065
                ]
            ],
            [
                [
                    -1.69917,
                    0.04592,
                    0.22363
                ],
                [
                    -0.01087,
                    -1.81113,
                    -0.22599
                ],
                [
                    0.30879,
                    -0.29685,
                    -2.40703
                ]
            ],
            [
                [
                    -1.99123,
                    -0.22868,
                    -0.12108
                ],
                [
                    -0.3316,
                    -2.25566,
                    -0.32594
                ],
                [
                    -0.0822,
                    -0.20475,
                    -1.7308
                ]
            ],
            [
                [
                    -2.52023,
                    -0.12723,
                    0.03472
                ],
                [
                    -0.19077,
                    -1.76385,
                    -0.03627
                ],
                [
                    -0.04127,
                    -0.01617,
                    -1.55603
                ]
            ],
            [
                [
                    -2.52145,
                    0.1274,
                    0.03461
                ],
                [
                    0.19077,
                    -1.76385,
                    0.03627
                ],
                [
                    -0.04171,
                    0.01614,
                    -1.55605
                ]
            ],
            [
                [
                    -1.99148,
                    0.22924,
                    -0.12119
                ],
                [
                    0.3316,
                    -2.25566,
                    0.32594
                ],
                [
                    -0.0825,
                    0.20511,
                    -1.73099
                ]
            ],
            [
                [
                    -1.69947,
                    -0.04609,
                    0.22411
                ],
                [
                    0.01087,
                    -1.81113,
                    0.22599
                ],
                [
                    0.30873,
                    0.29686,
                    -2.40694
                ]
            ]
        ]
    },
    "band_gap": 3.0576999999999996,
    "is_direct": true,
    "formula": "Cs6Ge2O7"
}