{
    "mp_id": "mp-1227081",
    "nelements": 4,
    "nsites": 12,
    "elements": [
        "Ca",
        "O",
        "Th",
        "V"
    ],
    "structure": {
        "@module": "pymatgen.core.structure",
        "@class": "Structure",
        "charge": null,
        "lattice": {
            "matrix": [
                [
                    -3.70391262,
                    3.70391262,
                    3.24279393
                ],
                [
                    3.70391262,
                    -3.70391262,
                    3.24279393
                ],
                [
                    3.70391262,
                    3.70391262,
                    -3.24279393
                ]
            ],
            "a": 6.160653363535022,
            "b": 6.160653363535022,
            "c": 6.160653363535022,
            "alpha": 106.0852452750085,
            "beta": 106.0852452750085,
            "gamma": 116.4787296246424,
            "volume": 177.95115366071653
        },
        "sites": [
            {
                "species": [
                    {
                        "element": "Ca",
                        "occu": 1
                    }
                ],
                "abc": [
                    0.0,
                    0.0,
                    0.0
                ],
                "xyz": [
                    0.0,
                    0.0,
                    0.0
                ],
                "label": "Ca",
                "properties": {}
            },
            {
                "species": [
                    {
                        "element": "Th",
                        "occu": 1
                    }
                ],
                "abc": [
                    0.75,
                    0.25,
                    0.5
                ],
                "xyz": [
                    2.220446049250313e-16,
                    3.7039126199999997,
                    1.621396965
                ],
                "label": "Th",
                "properties": {}
            },
            {
                "species": [
                    {
                        "element": "V",
                        "occu": 1
                    }
                ],
                "abc": [
                    0.25,
                    0.75,
                    0.5
                ],
                "xyz": [
                    3.7039126199999997,
                    2.220446049250313e-16,
                    1.621396965
                ],
                "label": "V",
                "properties": {}
            },
            {
                "species": [
                    {
                        "element": "V",
                        "occu": 1
                    }
                ],
                "abc": [
                    0.5,
                    0.5,
                    0.0
                ],
                "xyz": [
                    0.0,
                    0.0,
                    3.24279393
                ],
                "label": "V",
                "properties": {}
            },
            {
                "species": [
                    {
                        "element": "O",
                        "occu": 1
                    }
                ],
                "abc": [
                    0.59974515,
                    0.91918707,
                    0.68055808
                ],
                "xyz": [
                    3.70391262,
                    1.3375427023099387,
                    2.7186745722609698
                ],
                "label": "O",
                "properties": {}
            },
            {
                "species": [
                    {
                        "element": "O",
                        "occu": 1
                    }
                ],
                "abc": [
                    0.66891642,
                    0.48974489,
                    0.82082847
                ],
                "xyz": [
                    2.376641237776583,
                    3.70391262,
                    1.095522282906661
                ],
                "label": "O",
                "properties": {}
            },
            {
                "species": [
                    {
                        "element": "O",
                        "occu": 1
                    }
                ],
                "abc": [
                    0.66891642,
                    0.84808795,
                    0.17917153
                ],
                "xyz": [
                    1.3272713822234175,
                    -3.3306690738754696e-16,
                    4.33831621290666
                ],
                "label": "O",
                "properties": {}
            },
            {
                "species": [
                    {
                        "element": "O",
                        "occu": 1
                    }
                ],
                "abc": [
                    0.23862899,
                    0.91918707,
                    0.31944192
                ],
                "xyz": [
                    3.7039126199999997,
                    -1.3375427023099389,
                    2.71867457226097
                ],
                "label": "O",
                "properties": {}
            },
            {
                "species": [
                    {
                        "element": "O",
                        "occu": 1
                    }
                ],
                "abc": [
                    0.15191205,
                    0.33108358,
                    0.82082847
                ],
                "xyz": [
                    3.70391262,
                    2.376641237776583,
                    -1.095522282906661
                ],
                "label": "O",
                "properties": {}
            },
            {
                "species": [
                    {
                        "element": "O",
                        "occu": 1
                    }
                ],
                "abc": [
                    0.08081293,
                    0.76137101,
                    0.68055808
                ],
                "xyz": [
                    5.041455322309939,
                    0.0,
                    0.5241193577390297
                ],
                "label": "O",
                "properties": {}
            },
            {
                "species": [
                    {
                        "element": "O",
                        "occu": 1
                    }
                ],
                "abc": [
                    0.08081293,
                    0.40025485,
                    0.31944192
                ],
                "xyz": [
                    2.3663699176900606,
                    2.220446049250313e-16,
                    0.5241193577390297
                ],
                "label": "O",
                "properties": {}
            },
            {
                "species": [
                    {
                        "element": "O",
                        "occu": 1
                    }
                ],
                "abc": [
                    0.51025511,
                    0.33108358,
                    0.17917153
                ],
                "xyz": [
                    -1.1102230246251565e-16,
                    1.3272713822234175,
                    2.147271647093339
                ],
                "label": "O",
                "properties": {}
            }
        ]
    },
    "spacegroup": {
        "source": "spglib",
        "symbol": "I-4m2",
        "number": 119,
        "point_group": "-42m",
        "crystal_system": "tetragonal",
        "hall": "I -4 -2"
    },
    "dielectric": {
        "epsilon_ionic": [
            [
                6.130813,
                -3e-08,
                -0.00020977
            ],
            [
                -3e-08,
                6.13083883,
                -0.00051637
            ],
            [
                -0.00020977,
                -0.00051637,
                10.35030716
            ]
        ],
        "epsilon_ionic_avg": 7.537319663333334,
        "epsilon_ionic_eig": [
            10.350307233620924,
            6.13081298945116,
            6.130838766927918
        ],
        "epsilon_electronic": [
            [
                3.86347409,
                0.0,
                0.0
            ],
            [
                0.0,
                3.86347409,
                0.0
            ],
            [
                0.0,
                0.0,
                4.74699481
            ]
        ],
        "epsilon_electronic_avg": 4.157980996666667,
        "epsilon_electronic_eig": [
            3.86347409,
            3.86347409,
            4.74699481
        ]
    },
    "phonon": {
        "lowest_freq": -0.11123369001572751,
        "frequency": [
            -0.11123369001572751,
            -0.11123369001572751,
            -0.028345820914071413,
            1.288010209498023,
            3.1914539840116243,
            3.1914539840116243,
            3.833298650501438,
            3.833298650501438,
            4.02617383632792,
            4.362090429657114,
            5.516706669376422,
            5.516706669376422,
            5.952496271720112,
            7.116167452144366,
            7.145416311431276,
            7.145416311431276,
            7.748487412422777,
            7.748487412422777,
            7.76143611353401,
            8.497144016730374,
            8.497144016730374,
            9.199509193629654,
            10.634312196791088,
            10.634312196791088,
            10.689520583893085,
            12.771560972234834,
            13.517981347936862,
            13.618728021122543,
            23.014003064347868,
            23.014003064347868,
            24.075636674455243,
            24.128051725388485,
            24.14483676198145,
            24.18953508549709,
            24.18953508549709,
            26.23250867731407
        ]
    },
    "born_effective_charge": {
        "avg_abs_trace": 2.7554255555555556,
        "tensors": [
            [
                [
                    2.64565,
                    -0.0,
                    -0.00037
                ],
                [
                    0.0,
                    2.6457,
                    -0.00034
                ],
                [
                    0.0,
                    0.0,
                    3.09861
                ]
            ],
            [
                [
                    5.74789,
                    -0.0,
                    -4e-05
                ],
                [
                    0.0,
                    5.74779,
                    -0.00036
                ],
                [
                    0.0,
                    0.0,
                    7.2961
                ]
            ],
            [
                [
                    2.66052,
                    -0.0,
                    -0.00023
                ],
                [
                    0.0,
                    2.6604,
                    8e-05
                ],
                [
                    0.0,
                    0.0,
                    4.74811
                ]
            ],
            [
                [
                    3.91477,
                    -0.0,
                    0.00063
                ],
                [
                    0.0,
                    3.9148,
                    0.00058
                ],
                [
                    0.0,
                    0.0,
                    4.51734
                ]
            ],
            [
                [
                    -0.7398,
                    0.00029,
                    0.00015
                ],
                [
                    0.0,
                    -2.222,
                    -0.81909
                ],
                [
                    0.0,
                    -0.96651,
                    -2.78409
                ]
            ],
            [
                [
                    -3.81352,
                    -0.0,
                    1.63543
                ],
                [
                    -0.00015,
                    -0.70922,
                    0.00015
                ],
                [
                    1.52706,
                    0.0,
                    -2.13089
                ]
            ],
            [
                [
                    -3.81425,
                    -0.0,
                    -1.6362
                ],
                [
                    0.00015,
                    -0.70922,
                    0.00015
                ],
                [
                    -1.52706,
                    -0.0,
                    -2.13089
                ]
            ],
            [
                [
                    -0.7398,
                    -0.00029,
                    0.00015
                ],
                [
                    0.0,
                    -2.2208,
                    0.8191
                ],
                [
                    -0.0,
                    0.96651,
                    -2.78409
                ]
            ],
            [
                [
                    -0.70922,
                    -5e-05,
                    -5e-05
                ],
                [
                    0.0,
                    -3.81399,
                    -1.63585
                ],
                [
                    -0.0,
                    -1.52724,
                    -2.13107
                ]
            ],
            [
                [
                    -2.22142,
                    -0.0,
                    0.81942
                ],
                [
                    0.00013,
                    -0.73989,
                    -0.00012
                ],
                [
                    0.96635,
                    0.0,
                    -2.78401
                ]
            ],
            [
                [
                    -2.2216,
                    -0.0,
                    -0.81884
                ],
                [
                    -0.00013,
                    -0.73989,
                    -0.00012
                ],
                [
                    -0.96635,
                    0.0,
                    -2.78401
                ]
            ],
            [
                [
                    -0.70922,
                    5e-05,
                    -5e-05
                ],
                [
                    0.0,
                    -3.81368,
                    1.63581
                ],
                [
                    0.0,
                    1.52724,
                    -2.13107
                ]
            ]
        ]
    },
    "band_gap": 3.0999000000000003,
    "is_direct": false,
    "formula": "CaThV2O8"
}