{
    "mp_id": "mp-1228129",
    "nelements": 4,
    "nsites": 14,
    "elements": [
        "Ba",
        "In",
        "O",
        "Sb"
    ],
    "structure": {
        "@module": "pymatgen.core.structure",
        "@class": "Structure",
        "charge": null,
        "lattice": {
            "matrix": [
                [
                    2.96000474,
                    -6.63397597,
                    0.0
                ],
                [
                    2.96000474,
                    6.63397597,
                    0.0
                ],
                [
                    0.0,
                    0.0,
                    5.93832635
                ]
            ],
            "a": 7.264383334554965,
            "b": 7.264383334554965,
            "c": 5.93832635,
            "alpha": 90.0,
            "beta": 90.0,
            "gamma": 131.90822796538953,
            "volume": 233.21708216476506
        },
        "sites": [
            {
                "species": [
                    {
                        "element": "Ba",
                        "occu": 1
                    }
                ],
                "abc": [
                    0.35478139,
                    0.64521861,
                    0.0
                ],
                "xyz": [
                    2.96000474,
                    1.9267535382736036,
                    0.0
                ],
                "label": "Ba",
                "properties": {}
            },
            {
                "species": [
                    {
                        "element": "Ba",
                        "occu": 1
                    }
                ],
                "abc": [
                    0.85459496,
                    0.14540504,
                    0.5
                ],
                "xyz": [
                    2.96000474,
                    -4.704748887446222,
                    2.969163175
                ],
                "label": "Ba",
                "properties": {}
            },
            {
                "species": [
                    {
                        "element": "Ba",
                        "occu": 1
                    }
                ],
                "abc": [
                    0.14540504,
                    0.85459496,
                    0.5
                ],
                "xyz": [
                    2.96000474,
                    4.704748887446222,
                    2.969163175
                ],
                "label": "Ba",
                "properties": {}
            },
            {
                "species": [
                    {
                        "element": "Ba",
                        "occu": 1
                    }
                ],
                "abc": [
                    0.64521861,
                    0.35478139,
                    0.0
                ],
                "xyz": [
                    2.96000474,
                    -1.9267535382736036,
                    0.0
                ],
                "label": "Ba",
                "properties": {}
            },
            {
                "species": [
                    {
                        "element": "In",
                        "occu": 1
                    }
                ],
                "abc": [
                    0.0,
                    0.0,
                    0.0
                ],
                "xyz": [
                    0.0,
                    0.0,
                    0.0
                ],
                "label": "In",
                "properties": {}
            },
            {
                "species": [
                    {
                        "element": "Sb",
                        "occu": 1
                    }
                ],
                "abc": [
                    0.5,
                    0.5,
                    0.5
                ],
                "xyz": [
                    2.96000474,
                    0.0,
                    2.969163175
                ],
                "label": "Sb",
                "properties": {}
            },
            {
                "species": [
                    {
                        "element": "O",
                        "occu": 1
                    }
                ],
                "abc": [
                    0.26062645,
                    0.26062645,
                    0.73557604
                ],
                "xyz": [
                    1.5429110547387461,
                    0.0,
                    4.368090580760653
                ],
                "label": "O",
                "properties": {}
            },
            {
                "species": [
                    {
                        "element": "O",
                        "occu": 1
                    }
                ],
                "abc": [
                    0.73937355,
                    0.73937355,
                    0.26442396
                ],
                "xyz": [
                    4.377098425261254,
                    0.0,
                    1.570235769239346
                ],
                "label": "O",
                "properties": {}
            },
            {
                "species": [
                    {
                        "element": "O",
                        "occu": 1
                    }
                ],
                "abc": [
                    0.73937355,
                    0.73937355,
                    0.73557604
                ],
                "xyz": [
                    4.377098425261254,
                    0.0,
                    4.368090580760653
                ],
                "label": "O",
                "properties": {}
            },
            {
                "species": [
                    {
                        "element": "O",
                        "occu": 1
                    }
                ],
                "abc": [
                    0.26062645,
                    0.26062645,
                    0.26442396
                ],
                "xyz": [
                    1.5429110547387461,
                    0.0,
                    1.570235769239346
                ],
                "label": "O",
                "properties": {}
            },
            {
                "species": [
                    {
                        "element": "O",
                        "occu": 1
                    }
                ],
                "abc": [
                    0.16193524,
                    0.83806476,
                    0.0
                ],
                "xyz": [
                    2.96000474,
                    4.485426988287633,
                    0.0
                ],
                "label": "O",
                "properties": {}
            },
            {
                "species": [
                    {
                        "element": "O",
                        "occu": 1
                    }
                ],
                "abc": [
                    0.6529215,
                    0.3470785,
                    0.5
                ],
                "xyz": [
                    2.96000474,
                    -2.02895511259271,
                    2.969163175
                ],
                "label": "O",
                "properties": {}
            },
            {
                "species": [
                    {
                        "element": "O",
                        "occu": 1
                    }
                ],
                "abc": [
                    0.3470785,
                    0.6529215,
                    0.5
                ],
                "xyz": [
                    2.96000474,
                    2.02895511259271,
                    2.969163175
                ],
                "label": "O",
                "properties": {}
            },
            {
                "species": [
                    {
                        "element": "O",
                        "occu": 1
                    }
                ],
                "abc": [
                    0.83806476,
                    0.16193524,
                    0.0
                ],
                "xyz": [
                    2.96000474,
                    -4.485426988287633,
                    0.0
                ],
                "label": "O",
                "properties": {}
            }
        ]
    },
    "spacegroup": {
        "source": "spglib",
        "symbol": "Cmmm",
        "number": 65,
        "point_group": "mmm",
        "crystal_system": "orthorhombic",
        "hall": "-C 2 2"
    },
    "dielectric": {
        "epsilon_ionic": [
            [
                18.91820912,
                -0.0,
                -1e-08
            ],
            [
                -0.0,
                8.42740628,
                1e-08
            ],
            [
                -1e-08,
                1e-08,
                21.01901767
            ]
        ],
        "epsilon_ionic_avg": 16.121544356666664,
        "epsilon_ionic_eig": [
            18.91820912,
            21.01901767,
            8.42740628
        ],
        "epsilon_electronic": [
            [
                4.26569581,
                0.0,
                0.0
            ],
            [
                0.0,
                4.45116397,
                0.0
            ],
            [
                0.0,
                0.0,
                4.25412039
            ]
        ],
        "epsilon_electronic_avg": 4.323660056666667,
        "epsilon_electronic_eig": [
            4.26569581,
            4.45116397,
            4.25412039
        ]
    },
    "phonon": {
        "lowest_freq": -0.03213997701535342,
        "frequency": [
            -0.03213997701535342,
            -0.01360243341394437,
            -0.013494846533618557,
            1.21466275413773,
            2.115774284677829,
            2.4048057485183327,
            2.478819815959992,
            2.620232932779861,
            2.6848723838023907,
            3.0902385986017036,
            3.398015859997795,
            3.466418325258546,
            3.507482205195511,
            3.8148553634344253,
            4.181753582579428,
            4.639438347209549,
            4.660129857747649,
            4.69014603934594,
            5.29168299950844,
            5.700434364201202,
            5.7583957416727705,
            5.839647022282725,
            6.140047893886378,
            6.194903072548538,
            6.30969893685756,
            7.3899366316153365,
            7.417064581820136,
            7.445118926833867,
            9.801534394966815,
            9.876659483057486,
            9.927545620453214,
            9.996767679856772,
            10.001454334596959,
            10.958399139703937,
            14.05579069412732,
            15.165537694952688,
            15.517284562803292,
            15.912293602488973,
            16.816659032289337,
            19.22614014106378,
            19.324094546819293,
            21.665591770385713
        ]
    },
    "born_effective_charge": {
        "avg_abs_trace": 2.668860238095238,
        "tensors": [
            [
                [
                    2.44844,
                    -0.00015,
                    -0.0
                ],
                [
                    -0.0,
                    2.93749,
                    -0.0
                ],
                [
                    0.0,
                    0.00019,
                    2.51761
                ]
            ],
            [
                [
                    2.63004,
                    -8e-05,
                    -0.0
                ],
                [
                    -0.0,
                    2.83598,
                    -0.0
                ],
                [
                    0.0,
                    0.00044,
                    2.52115
                ]
            ],
            [
                [
                    2.63004,
                    8e-05,
                    -0.0
                ],
                [
                    -0.0,
                    2.83577,
                    -0.0
                ],
                [
                    0.0,
                    -0.00044,
                    2.52115
                ]
            ],
            [
                [
                    2.44844,
                    0.00015,
                    -0.0
                ],
                [
                    -0.0,
                    2.93746,
                    -0.0
                ],
                [
                    0.0,
                    -0.00019,
                    2.51761
                ]
            ],
            [
                [
                    3.71356,
                    -0.0,
                    -0.0
                ],
                [
                    -0.0,
                    3.07662,
                    -0.0
                ],
                [
                    0.0,
                    -0.0,
                    3.80489
                ]
            ],
            [
                [
                    4.83332,
                    -0.0,
                    -0.0
                ],
                [
                    -0.0,
                    4.146,
                    -0.0
                ],
                [
                    0.0,
                    -0.0,
                    4.69049
                ]
            ],
            [
                [
                    -2.59145,
                    -0.0,
                    0.55793
                ],
                [
                    1e-05,
                    -1.803,
                    -4e-05
                ],
                [
                    0.56539,
                    -0.0,
                    -2.5734
                ]
            ],
            [
                [
                    -2.5915,
                    -0.0,
                    0.55802
                ],
                [
                    -1e-05,
                    -1.803,
                    4e-05
                ],
                [
                    0.56559,
                    -0.0,
                    -2.57339
                ]
            ],
            [
                [
                    -2.5915,
                    -0.0,
                    -0.55802
                ],
                [
                    -1e-05,
                    -1.803,
                    -4e-05
                ],
                [
                    -0.56539,
                    -0.0,
                    -2.5734
                ]
            ],
            [
                [
                    -2.59145,
                    -0.0,
                    -0.55793
                ],
                [
                    1e-05,
                    -1.803,
                    4e-05
                ],
                [
                    -0.56559,
                    -0.0,
                    -2.57339
                ]
            ],
            [
                [
                    -2.16282,
                    2e-05,
                    -0.0
                ],
                [
                    -0.0,
                    -2.85507,
                    -0.0
                ],
                [
                    0.0,
                    -4e-05,
                    -2.16048
                ]
            ],
            [
                [
                    -2.00615,
                    1e-05,
                    -0.0
                ],
                [
                    -0.0,
                    -2.92347,
                    -0.0
                ],
                [
                    0.0,
                    -7e-05,
                    -1.97919
                ]
            ],
            [
                [
                    -2.00615,
                    -1e-05,
                    -0.0
                ],
                [
                    -0.0,
                    -2.92356,
                    -0.0
                ],
                [
                    0.0,
                    7e-05,
                    -1.97919
                ]
            ],
            [
                [
                    -2.16282,
                    -2e-05,
                    -0.0
                ],
                [
                    -0.0,
                    -2.85521,
                    -0.0
                ],
                [
                    0.0,
                    4e-05,
                    -2.16048
                ]
            ]
        ]
    },
    "band_gap": 2.4989999999999997,
    "is_direct": false,
    "formula": "Ba4InSbO8"
}