{
    "mp_id": "mp-10814",
    "nelements": 4,
    "nsites": 24,
    "elements": [
        "B",
        "Li",
        "O",
        "Sr"
    ],
    "structure": {
        "@module": "pymatgen.core.structure",
        "@class": "Structure",
        "charge": null,
        "lattice": {
            "matrix": [
                [
                    6.50634529,
                    0.0,
                    -0.00037331
                ],
                [
                    0.0,
                    6.6579226,
                    0.0
                ],
                [
                    -4.24404466,
                    0.0,
                    6.46955988
                ]
            ],
            "a": 6.506345300709572,
            "b": 6.6579226,
            "c": 7.737384578588564,
            "alpha": 90.0,
            "beta": 123.26824499798855,
            "gamma": 90.0,
            "volume": 280.24265558539946
        },
        "sites": [
            {
                "species": [
                    {
                        "element": "Sr",
                        "occu": 1
                    }
                ],
                "abc": [
                    0.33545924,
                    0.62118211,
                    0.63224527
                ],
                "xyz": [
                    -0.500663515792779,
                    4.135782408884686,
                    4.090223402822883
                ],
                "label": "Sr",
                "properties": {}
            },
            {
                "species": [
                    {
                        "element": "Sr",
                        "occu": 1
                    }
                ],
                "abc": [
                    0.66454076,
                    0.12118211,
                    0.86775473
                ],
                "xyz": [
                    0.640941815792778,
                    0.806821108884686,
                    5.613743107177116
                ],
                "label": "Sr",
                "properties": {}
            },
            {
                "species": [
                    {
                        "element": "Sr",
                        "occu": 1
                    }
                ],
                "abc": [
                    0.66454076,
                    0.37881789,
                    0.36775473
                ],
                "xyz": [
                    2.762964145792778,
                    2.522140191115314,
                    2.3789631671771168
                ],
                "label": "Sr",
                "properties": {}
            },
            {
                "species": [
                    {
                        "element": "Sr",
                        "occu": 1
                    }
                ],
                "abc": [
                    0.33545924,
                    0.87881789,
                    0.13224527
                ],
                "xyz": [
                    1.621358814207221,
                    5.851101491115314,
                    0.8554434628228832
                ],
                "label": "Sr",
                "properties": {}
            },
            {
                "species": [
                    {
                        "element": "Li",
                        "occu": 1
                    }
                ],
                "abc": [
                    0.90826772,
                    0.90549319,
                    0.30711614
                ],
                "xyz": [
                    4.606088788114226,
                    6.0287035738470935,
                    1.98656719242191
                ],
                "label": "Li",
                "properties": {}
            },
            {
                "species": [
                    {
                        "element": "Li",
                        "occu": 1
                    }
                ],
                "abc": [
                    0.09173228,
                    0.40549319,
                    0.19288386
                ],
                "xyz": [
                    -0.2217658281142264,
                    2.699742273847094,
                    1.24783943757809
                ],
                "label": "Li",
                "properties": {}
            },
            {
                "species": [
                    {
                        "element": "Li",
                        "occu": 1
                    }
                ],
                "abc": [
                    0.09173228,
                    0.09450681,
                    0.69288386
                ],
                "xyz": [
                    -2.3437881581142266,
                    0.6292190261529059,
                    4.48261937757809
                ],
                "label": "Li",
                "properties": {}
            },
            {
                "species": [
                    {
                        "element": "Li",
                        "occu": 1
                    }
                ],
                "abc": [
                    0.90826772,
                    0.59450681,
                    0.80711614
                ],
                "xyz": [
                    2.484066458114226,
                    3.9581803261529065,
                    5.2213471324219105
                ],
                "label": "Li",
                "properties": {}
            },
            {
                "species": [
                    {
                        "element": "B",
                        "occu": 1
                    }
                ],
                "abc": [
                    0.23887601,
                    0.36888378,
                    0.9264028
                ],
                "xyz": [
                    -2.3774850537915553,
                    2.455999655635428,
                    5.993329212796371
                ],
                "label": "B",
                "properties": {}
            },
            {
                "species": [
                    {
                        "element": "B",
                        "occu": 1
                    }
                ],
                "abc": [
                    0.76112399,
                    0.86888378,
                    0.5735972
                ],
                "xyz": [
                    2.5177633537915547,
                    5.784960955635428,
                    3.7106372972036294
                ],
                "label": "B",
                "properties": {}
            },
            {
                "species": [
                    {
                        "element": "B",
                        "occu": 1
                    }
                ],
                "abc": [
                    0.76112399,
                    0.63111622,
                    0.0735972
                ],
                "xyz": [
                    4.639785683791555,
                    4.201922944364572,
                    0.47585735720362915
                ],
                "label": "B",
                "properties": {}
            },
            {
                "species": [
                    {
                        "element": "B",
                        "occu": 1
                    }
                ],
                "abc": [
                    0.23887601,
                    0.13111622,
                    0.4264028
                ],
                "xyz": [
                    -0.2554627237915552,
                    0.872961644364572,
                    2.758549272796371
                ],
                "label": "B",
                "properties": {}
            },
            {
                "species": [
                    {
                        "element": "O",
                        "occu": 1
                    }
                ],
                "abc": [
                    0.93728122,
                    0.60566197,
                    0.28410492
                ],
                "xyz": [
                    4.892521282546726,
                    4.032450518023522,
                    1.8376838956903714
                ],
                "label": "O",
                "properties": {}
            },
            {
                "species": [
                    {
                        "element": "O",
                        "occu": 1
                    }
                ],
                "abc": [
                    0.61038953,
                    0.70195324,
                    0.50584489
                ],
                "xyz": [
                    1.8245767393880254,
                    4.673550340739224,
                    3.272365941331569
                ],
                "label": "O",
                "properties": {}
            },
            {
                "species": [
                    {
                        "element": "O",
                        "occu": 1
                    }
                ],
                "abc": [
                    0.38961047,
                    0.29804676,
                    0.49415511
                ],
                "xyz": [
                    0.4377238906119736,
                    1.9843722592607762,
                    3.1968206286684313
                ],
                "label": "O",
                "properties": {}
            },
            {
                "species": [
                    {
                        "element": "O",
                        "occu": 1
                    }
                ],
                "abc": [
                    0.61038953,
                    0.79804676,
                    0.00584489
                ],
                "xyz": [
                    3.9465990693880255,
                    5.3133335592607756,
                    0.037586001331568905
                ],
                "label": "O",
                "properties": {}
            },
            {
                "species": [
                    {
                        "element": "O",
                        "occu": 1
                    }
                ],
                "abc": [
                    0.25692764,
                    0.51199617,
                    0.06423455
                ],
                "xyz": [
                    1.3990456414698125,
                    3.4088308713564417,
                    0.4154733539325656
                ],
                "label": "O",
                "properties": {}
            },
            {
                "species": [
                    {
                        "element": "O",
                        "occu": 1
                    }
                ],
                "abc": [
                    0.74307236,
                    0.01199617,
                    0.43576545
                ],
                "xyz": [
                    2.985277318530187,
                    0.079869571356442,
                    2.8189332760674346
                ],
                "label": "O",
                "properties": {}
            },
            {
                "species": [
                    {
                        "element": "O",
                        "occu": 1
                    }
                ],
                "abc": [
                    0.74307236,
                    0.48800383,
                    0.93576545
                ],
                "xyz": [
                    0.863254988530187,
                    3.2490917286435583,
                    6.053713216067435
                ],
                "label": "O",
                "properties": {}
            },
            {
                "species": [
                    {
                        "element": "O",
                        "occu": 1
                    }
                ],
                "abc": [
                    0.25692764,
                    0.98800383,
                    0.56423455
                ],
                "xyz": [
                    -0.7229766885301874,
                    6.578053028643558,
                    3.6502532939325656
                ],
                "label": "O",
                "properties": {}
            },
            {
                "species": [
                    {
                        "element": "O",
                        "occu": 1
                    }
                ],
                "abc": [
                    0.06271878,
                    0.39433803,
                    0.71589508
                ],
                "xyz": [
                    -2.630220652546727,
                    2.625472081976478,
                    4.631502674309629
                ],
                "label": "O",
                "properties": {}
            },
            {
                "species": [
                    {
                        "element": "O",
                        "occu": 1
                    }
                ],
                "abc": [
                    0.93728122,
                    0.89433803,
                    0.78410492
                ],
                "xyz": [
                    2.7704989525467263,
                    5.954433381976478,
                    5.072463835690371
                ],
                "label": "O",
                "properties": {}
            },
            {
                "species": [
                    {
                        "element": "O",
                        "occu": 1
                    }
                ],
                "abc": [
                    0.38961047,
                    0.20195324,
                    0.99415511
                ],
                "xyz": [
                    -1.6842984393880265,
                    1.344589040739224,
                    6.431600568668431
                ],
                "label": "O",
                "properties": {}
            },
            {
                "species": [
                    {
                        "element": "O",
                        "occu": 1
                    }
                ],
                "abc": [
                    0.06271878,
                    0.10566197,
                    0.21589508
                ],
                "xyz": [
                    -0.5081983225467266,
                    0.7034892180235219,
                    1.3967227343096287
                ],
                "label": "O",
                "properties": {}
            }
        ]
    },
    "spacegroup": {
        "source": "spglib",
        "symbol": "P2_1/c",
        "number": 14,
        "point_group": "2/m",
        "crystal_system": "monoclinic",
        "hall": "-P 2ybc"
    },
    "dielectric": {
        "epsilon_ionic": [
            [
                5.47396208,
                1e-08,
                0.86872118
            ],
            [
                1e-08,
                4.87587898,
                -2e-08
            ],
            [
                0.86872118,
                -2e-08,
                6.98233905
            ]
        ],
        "epsilon_ionic_avg": 5.7773933699999995,
        "epsilon_ionic_eig": [
            7.378575164653183,
            5.077725965346816,
            4.8758789799999995
        ],
        "epsilon_electronic": [
            [
                2.81601645,
                0.0,
                0.06746354
            ],
            [
                0.0,
                2.99881753,
                0.0
            ],
            [
                0.06746386,
                0.0,
                3.09987262
            ]
        ],
        "epsilon_electronic_avg": 2.971568866666667,
        "epsilon_electronic_eig": [
            2.800798322416204,
            3.115090747583796,
            2.99881753
        ]
    },
    "phonon": {
        "lowest_freq": -0.038093213706690714,
        "frequency": [
            -0.038093213706690714,
            -0.02866221837611132,
            -0.02344227501008814,
            2.8106859196333356,
            2.920146564573152,
            3.1308524424370385,
            3.5840789820785734,
            4.002428107223719,
            4.218396644889558,
            4.276111857260999,
            4.415525377741832,
            4.675760489954654,
            4.834030005253958,
            5.145672725018082,
            5.309036306356133,
            5.329884236630056,
            5.494796269472072,
            5.699609709893358,
            5.99327802542243,
            6.080883973766768,
            6.1942672542953305,
            6.302867550777917,
            6.463509939920687,
            6.583911173140149,
            6.967872996506721,
            7.162896448878935,
            7.389264991049683,
            7.417043608441533,
            7.641854782314683,
            7.843645762700374,
            7.9761531034675395,
            8.04895955093269,
            8.838782754988157,
            8.908033732577994,
            9.039952832926721,
            9.11686164379208,
            9.893960837693223,
            10.285325392605186,
            10.405818767075848,
            10.75573661201651,
            13.079530323380421,
            13.166086444111519,
            13.282623156306789,
            13.372599383969208,
            13.747509091833063,
            14.119314323633116,
            14.16659468601769,
            14.253883819125374,
            17.068375547862548,
            17.14191828062941,
            17.252340561270156,
            17.41916765739403,
            17.43809318828018,
            17.59665438332977,
            17.713454307054484,
            17.862701441251858,
            21.67598849093889,
            21.705585467380306,
            21.926743680417577,
            22.10720077512585,
            26.897541506936506,
            26.943056621904127,
            27.01075362175638,
            27.036641071323942,
            36.17689809712936,
            36.27945626403471,
            36.58592077061945,
            37.172853496785656,
            37.44987024641699,
            37.54726569098355,
            37.6198055464058,
            38.50037466297514
        ]
    },
    "born_effective_charge": {
        "avg_abs_trace": 1.7883394444444445,
        "tensors": [
            [
                [
                    2.3645,
                    0.12977,
                    0.09101
                ],
                [
                    0.06766,
                    2.58411,
                    -0.01666
                ],
                [
                    0.13887,
                    -0.06382,
                    2.56112
                ]
            ],
            [
                [
                    2.36449,
                    -0.1298,
                    0.09088
                ],
                [
                    -0.06766,
                    2.58411,
                    0.01666
                ],
                [
                    0.13889,
                    0.06377,
                    2.56108
                ]
            ],
            [
                [
                    2.36449,
                    0.1298,
                    0.09088
                ],
                [
                    0.06764,
                    2.58414,
                    -0.01661
                ],
                [
                    0.13889,
                    -0.06377,
                    2.56108
                ]
            ],
            [
                [
                    2.3645,
                    -0.12977,
                    0.09101
                ],
                [
                    -0.06764,
                    2.58414,
                    0.01661
                ],
                [
                    0.13887,
                    0.06382,
                    2.56112
                ]
            ],
            [
                [
                    1.03016,
                    0.09504,
                    0.04332
                ],
                [
                    0.10095,
                    0.94953,
                    0.15211
                ],
                [
                    0.02769,
                    0.15118,
                    0.98125
                ]
            ],
            [
                [
                    1.03016,
                    -0.09503,
                    0.04332
                ],
                [
                    -0.10095,
                    0.94953,
                    -0.15211
                ],
                [
                    0.02769,
                    -0.15118,
                    0.98125
                ]
            ],
            [
                [
                    1.03016,
                    0.09503,
                    0.04332
                ],
                [
                    0.10096,
                    0.94952,
                    0.15211
                ],
                [
                    0.02769,
                    0.15118,
                    0.98125
                ]
            ],
            [
                [
                    1.03016,
                    -0.09504,
                    0.04332
                ],
                [
                    -0.10096,
                    0.94952,
                    -0.15211
                ],
                [
                    0.02769,
                    -0.15118,
                    0.98125
                ]
            ],
            [
                [
                    0.95205,
                    -0.88967,
                    0.23114
                ],
                [
                    -0.97138,
                    2.04842,
                    0.09395
                ],
                [
                    0.17628,
                    0.08475,
                    2.62389
                ]
            ],
            [
                [
                    0.95206,
                    0.88968,
                    0.23112
                ],
                [
                    0.97138,
                    2.04842,
                    -0.09395
                ],
                [
                    0.17629,
                    -0.08475,
                    2.62391
                ]
            ],
            [
                [
                    0.95206,
                    -0.88968,
                    0.23112
                ],
                [
                    -0.97134,
                    2.04846,
                    0.09406
                ],
                [
                    0.17629,
                    0.08475,
                    2.62391
                ]
            ],
            [
                [
                    0.95205,
                    0.88967,
                    0.23114
                ],
                [
                    0.97134,
                    2.04846,
                    -0.09406
                ],
                [
                    0.17628,
                    -0.08475,
                    2.62389
                ]
            ],
            [
                [
                    -1.38658,
                    0.03965,
                    -0.35411
                ],
                [
                    0.08742,
                    -1.39551,
                    0.11705
                ],
                [
                    -0.30606,
                    0.12141,
                    -2.56388
                ]
            ],
            [
                [
                    -1.57493,
                    -0.45172,
                    -0.07001
                ],
                [
                    -0.4498,
                    -2.17874,
                    -0.22525
                ],
                [
                    -0.09164,
                    -0.22506,
                    -1.6711
                ]
            ],
            [
                [
                    -1.57506,
                    -0.45185,
                    -0.07001
                ],
                [
                    -0.44956,
                    -2.17876,
                    -0.22514
                ],
                [
                    -0.09169,
                    -0.22509,
                    -1.67117
                ]
            ],
            [
                [
                    -1.57493,
                    0.45172,
                    -0.07001
                ],
                [
                    0.44956,
                    -2.17876,
                    0.22514
                ],
                [
                    -0.09164,
                    0.22506,
                    -1.6711
                ]
            ],
            [
                [
                    -1.3851,
                    0.30928,
                    0.05879
                ],
                [
                    0.34874,
                    -2.00778,
                    -0.39879
                ],
                [
                    0.05487,
                    -0.40578,
                    -1.93121
                ]
            ],
            [
                [
                    -1.38512,
                    -0.30914,
                    0.05868
                ],
                [
                    -0.34874,
                    -2.00778,
                    0.39879
                ],
                [
                    0.05489,
                    0.40576,
                    -1.93107
                ]
            ],
            [
                [
                    -1.38512,
                    0.30914,
                    0.05868
                ],
                [
                    0.34872,
                    -2.00792,
                    -0.39911
                ],
                [
                    0.05489,
                    -0.40576,
                    -1.93107
                ]
            ],
            [
                [
                    -1.3851,
                    -0.30928,
                    0.05879
                ],
                [
                    -0.34872,
                    -2.00792,
                    0.39911
                ],
                [
                    0.05487,
                    0.40578,
                    -1.93121
                ]
            ],
            [
                [
                    -1.38662,
                    0.03968,
                    -0.35414
                ],
                [
                    0.08738,
                    -1.39549,
                    0.11741
                ],
                [
                    -0.30609,
                    0.12146,
                    -2.56408
                ]
            ],
            [
                [
                    -1.38658,
                    -0.03965,
                    -0.35411
                ],
                [
                    -0.08738,
                    -1.39549,
                    -0.11741
                ],
                [
                    -0.30606,
                    -0.12141,
                    -2.56388
                ]
            ],
            [
                [
                    -1.57506,
                    0.45185,
                    -0.07001
                ],
                [
                    0.4498,
                    -2.17874,
                    0.22525
                ],
                [
                    -0.09169,
                    0.22509,
                    -1.67117
                ]
            ],
            [
                [
                    -1.38662,
                    -0.03968,
                    -0.35414
                ],
                [
                    -0.08742,
                    -1.39551,
                    -0.11705
                ],
                [
                    -0.30609,
                    -0.12146,
                    -2.56408
                ]
            ]
        ]
    },
    "band_gap": 4.450699999999999,
    "is_direct": false,
    "formula": "SrLiBO3"
}