{
    "mp_id": "mp-19803",
    "nelements": 3,
    "nsites": 14,
    "elements": [
        "Cd",
        "In",
        "O"
    ],
    "structure": {
        "@module": "pymatgen.core.structure",
        "@class": "Structure",
        "charge": null,
        "lattice": {
            "matrix": [
                [
                    0.0,
                    4.62814739,
                    4.62814739
                ],
                [
                    4.62814739,
                    0.0,
                    4.62814739
                ],
                [
                    4.62814739,
                    4.62814739,
                    0.0
                ]
            ],
            "a": 6.545188807599641,
            "b": 6.545188807599641,
            "c": 6.545188807599641,
            "alpha": 59.99999999999999,
            "beta": 59.99999999999999,
            "gamma": 59.99999999999999,
            "volume": 198.2675040409397
        },
        "sites": [
            {
                "species": [
                    {
                        "element": "Cd",
                        "occu": 1
                    }
                ],
                "abc": [
                    0.25,
                    0.25,
                    0.25
                ],
                "xyz": [
                    2.314073695,
                    2.314073695,
                    2.314073695
                ],
                "label": "Cd",
                "properties": {}
            },
            {
                "species": [
                    {
                        "element": "Cd",
                        "occu": 1
                    }
                ],
                "abc": [
                    0.0,
                    0.0,
                    0.0
                ],
                "xyz": [
                    0.0,
                    0.0,
                    0.0
                ],
                "label": "Cd",
                "properties": {}
            },
            {
                "species": [
                    {
                        "element": "In",
                        "occu": 1
                    }
                ],
                "abc": [
                    0.625,
                    0.625,
                    0.625
                ],
                "xyz": [
                    5.785184237499999,
                    5.785184237499999,
                    5.785184237499999
                ],
                "label": "In",
                "properties": {}
            },
            {
                "species": [
                    {
                        "element": "In",
                        "occu": 1
                    }
                ],
                "abc": [
                    0.625,
                    0.125,
                    0.625
                ],
                "xyz": [
                    3.4711105424999995,
                    5.785184237499999,
                    3.4711105424999995
                ],
                "label": "In",
                "properties": {}
            },
            {
                "species": [
                    {
                        "element": "In",
                        "occu": 1
                    }
                ],
                "abc": [
                    0.625,
                    0.625,
                    0.125
                ],
                "xyz": [
                    3.4711105424999995,
                    3.4711105424999995,
                    5.785184237499999
                ],
                "label": "In",
                "properties": {}
            },
            {
                "species": [
                    {
                        "element": "In",
                        "occu": 1
                    }
                ],
                "abc": [
                    0.125,
                    0.625,
                    0.625
                ],
                "xyz": [
                    5.785184237499999,
                    3.4711105424999995,
                    3.4711105424999995
                ],
                "label": "In",
                "properties": {}
            },
            {
                "species": [
                    {
                        "element": "O",
                        "occu": 1
                    }
                ],
                "abc": [
                    0.41160282,
                    0.86279939,
                    0.86279939
                ],
                "xyz": [
                    7.986325489844184,
                    5.898121262021731,
                    5.898121262021731
                ],
                "label": "O",
                "properties": {}
            },
            {
                "species": [
                    {
                        "element": "O",
                        "occu": 1
                    }
                ],
                "abc": [
                    0.86279939,
                    0.86279939,
                    0.41160282
                ],
                "xyz": [
                    5.898121262021731,
                    5.898121262021731,
                    7.986325489844184
                ],
                "label": "O",
                "properties": {}
            },
            {
                "species": [
                    {
                        "element": "O",
                        "occu": 1
                    }
                ],
                "abc": [
                    0.86279939,
                    0.86279939,
                    0.86279939
                ],
                "xyz": [
                    7.986325489844184,
                    7.986325489844184,
                    7.986325489844184
                ],
                "label": "O",
                "properties": {}
            },
            {
                "species": [
                    {
                        "element": "O",
                        "occu": 1
                    }
                ],
                "abc": [
                    0.83839718,
                    0.38720061,
                    0.38720061
                ],
                "xyz": [
                    3.5840429851558153,
                    5.6722472129782675,
                    5.6722472129782675
                ],
                "label": "O",
                "properties": {}
            },
            {
                "species": [
                    {
                        "element": "O",
                        "occu": 1
                    }
                ],
                "abc": [
                    0.38720061,
                    0.83839718,
                    0.38720061
                ],
                "xyz": [
                    5.6722472129782675,
                    3.5840429851558153,
                    5.6722472129782675
                ],
                "label": "O",
                "properties": {}
            },
            {
                "species": [
                    {
                        "element": "O",
                        "occu": 1
                    }
                ],
                "abc": [
                    0.38720061,
                    0.38720061,
                    0.83839718
                ],
                "xyz": [
                    5.6722472129782675,
                    5.6722472129782675,
                    3.5840429851558153
                ],
                "label": "O",
                "properties": {}
            },
            {
                "species": [
                    {
                        "element": "O",
                        "occu": 1
                    }
                ],
                "abc": [
                    0.86279939,
                    0.41160282,
                    0.86279939
                ],
                "xyz": [
                    5.898121262021731,
                    7.986325489844184,
                    5.898121262021731
                ],
                "label": "O",
                "properties": {}
            },
            {
                "species": [
                    {
                        "element": "O",
                        "occu": 1
                    }
                ],
                "abc": [
                    0.38720061,
                    0.38720061,
                    0.38720061
                ],
                "xyz": [
                    3.5840429851558153,
                    3.5840429851558153,
                    3.5840429851558153
                ],
                "label": "O",
                "properties": {}
            }
        ]
    },
    "spacegroup": {
        "source": "spglib",
        "symbol": "Fd-3m",
        "number": 227,
        "point_group": "m-3m",
        "crystal_system": "cubic",
        "hall": "F 4d 2 3 -1d"
    },
    "dielectric": {
        "epsilon_ionic": [
            [
                5.48127056,
                -0.0,
                -0.0
            ],
            [
                -0.0,
                5.48112735,
                -0.0
            ],
            [
                -0.0,
                -0.0,
                5.48016296
            ]
        ],
        "epsilon_ionic_avg": 5.480853623333334,
        "epsilon_ionic_eig": [
            5.48127056,
            5.48112735,
            5.48016296
        ],
        "epsilon_electronic": [
            [
                5.00049866,
                0.0,
                0.0
            ],
            [
                -0.0,
                5.00049866,
                -0.0
            ],
            [
                -0.0,
                0.0,
                5.00049866
            ]
        ],
        "epsilon_electronic_avg": 5.00049866,
        "epsilon_electronic_eig": [
            5.00049866,
            5.00049866,
            5.00049866
        ]
    },
    "phonon": {
        "lowest_freq": -0.060048383369243744,
        "frequency": [
            -0.060048383369243744,
            -0.060048383369243744,
            -0.060048383369243744,
            2.5338361211593967,
            2.5338361211593967,
            2.5338361211593967,
            3.2109738518006052,
            3.2109738518006052,
            3.2109738518006052,
            3.573462633311886,
            3.573462633311886,
            3.573462633311886,
            4.801087781473736,
            4.801087781473736,
            7.068071076701793,
            7.068071076701793,
            7.068071076701793,
            8.832780420413373,
            9.996383571277134,
            9.996383571277134,
            9.996383571277134,
            10.344198797126241,
            10.344198797126241,
            11.422000599475094,
            11.422000599475094,
            11.422000599475094,
            11.999976841309035,
            11.999976841309035,
            11.999976841309035,
            12.844669918225781,
            12.844669918225781,
            12.844669918225781,
            14.32214289202636,
            14.32214289202636,
            14.665397976808466,
            14.665397976808466,
            14.665397976808466,
            15.638267442485514,
            15.638267442485514,
            15.638267442485514,
            17.425067828360213,
            17.83466715902374
        ]
    },
    "born_effective_charge": {
        "avg_abs_trace": 2.494828095238095,
        "tensors": [
            [
                [
                    2.45615,
                    0.0,
                    -0.0
                ],
                [
                    -0.0,
                    2.45614,
                    -0.0
                ],
                [
                    -0.0,
                    0.0,
                    2.45596
                ]
            ],
            [
                [
                    2.45615,
                    0.0,
                    -0.0
                ],
                [
                    -0.0,
                    2.45614,
                    -0.0
                ],
                [
                    -0.0,
                    0.0,
                    2.45596
                ]
            ],
            [
                [
                    3.13806,
                    0.28916,
                    0.28916
                ],
                [
                    0.28919,
                    3.138,
                    0.28919
                ],
                [
                    0.28923,
                    0.28923,
                    3.13767
                ]
            ],
            [
                [
                    3.13806,
                    -0.28916,
                    0.28916
                ],
                [
                    -0.28919,
                    3.138,
                    -0.28919
                ],
                [
                    0.28923,
                    -0.28923,
                    3.13767
                ]
            ],
            [
                [
                    3.13806,
                    0.28916,
                    -0.28916
                ],
                [
                    0.28919,
                    3.138,
                    -0.28919
                ],
                [
                    -0.28923,
                    -0.28923,
                    3.13767
                ]
            ],
            [
                [
                    3.13806,
                    -0.28916,
                    -0.28916
                ],
                [
                    -0.28919,
                    3.138,
                    0.28919
                ],
                [
                    -0.28923,
                    0.28923,
                    3.13767
                ]
            ],
            [
                [
                    -2.18307,
                    0.16154,
                    0.16154
                ],
                [
                    0.16158,
                    -2.183,
                    -0.16158
                ],
                [
                    0.16154,
                    -0.16154,
                    -2.18279
                ]
            ],
            [
                [
                    -2.18306,
                    -0.16157,
                    0.16157
                ],
                [
                    -0.16158,
                    -2.183,
                    0.16158
                ],
                [
                    0.16146,
                    0.16146,
                    -2.18286
                ]
            ],
            [
                [
                    -2.18307,
                    -0.16154,
                    -0.16154
                ],
                [
                    -0.1615,
                    -2.18306,
                    -0.1615
                ],
                [
                    -0.16146,
                    -0.16146,
                    -2.18286
                ]
            ],
            [
                [
                    -2.18306,
                    0.16157,
                    0.16157
                ],
                [
                    0.1615,
                    -2.18306,
                    -0.1615
                ],
                [
                    0.16146,
                    -0.16146,
                    -2.18286
                ]
            ],
            [
                [
                    -2.18307,
                    0.16154,
                    -0.16154
                ],
                [
                    0.16158,
                    -2.183,
                    0.16158
                ],
                [
                    -0.16146,
                    0.16146,
                    -2.18286
                ]
            ],
            [
                [
                    -2.18307,
                    -0.16154,
                    0.16154
                ],
                [
                    -0.1615,
                    -2.18306,
                    0.1615
                ],
                [
                    0.16154,
                    0.16154,
                    -2.18279
                ]
            ],
            [
                [
                    -2.18306,
                    0.16157,
                    -0.16157
                ],
                [
                    0.1615,
                    -2.18306,
                    0.1615
                ],
                [
                    -0.16154,
                    0.16154,
                    -2.18279
                ]
            ],
            [
                [
                    -2.18306,
                    -0.16157,
                    -0.16157
                ],
                [
                    -0.16158,
                    -2.183,
                    -0.16158
                ],
                [
                    -0.16154,
                    -0.16154,
                    -2.18279
                ]
            ]
        ]
    },
    "band_gap": 0.9401999999999999,
    "is_direct": false,
    "formula": "CdIn2O4"
}