{
    "mp_id": "mp-1095520",
    "nelements": 3,
    "nsites": 12,
    "elements": [
        "K",
        "O",
        "Pd"
    ],
    "structure": {
        "@module": "pymatgen.core.structure",
        "@class": "Structure",
        "charge": null,
        "lattice": {
            "matrix": [
                [
                    3.02138134,
                    1.74439592,
                    6.16135461
                ],
                [
                    -3.02138134,
                    1.74439592,
                    6.16135461
                ],
                [
                    0.0,
                    -3.48879084,
                    6.16135461
                ]
            ],
            "a": 7.080533380867652,
            "b": 7.080533380867652,
            "c": 7.080533324223265,
            "alpha": 50.51874405443227,
            "beta": 50.51874405443227,
            "gamma": 50.51873787097823,
            "volume": 194.83993551314006
        },
        "sites": [
            {
                "species": [
                    {
                        "element": "K",
                        "occu": 1
                    }
                ],
                "abc": [
                    0.82972077,
                    0.82972077,
                    0.82972077
                ],
                "xyz": [
                    0.0,
                    8.297207703122922e-07,
                    15.33661167375675
                ],
                "label": "K",
                "properties": {}
            },
            {
                "species": [
                    {
                        "element": "K",
                        "occu": 1
                    }
                ],
                "abc": [
                    0.17027923,
                    0.17027923,
                    0.17027923
                ],
                "xyz": [
                    0.0,
                    1.7027923004953038e-07,
                    3.1474521562432507
                ],
                "label": "K",
                "properties": {}
            },
            {
                "species": [
                    {
                        "element": "Pd",
                        "occu": 1
                    }
                ],
                "abc": [
                    0.5,
                    0.0,
                    0.5
                ],
                "xyz": [
                    1.51069067,
                    -0.87219746,
                    6.16135461
                ],
                "label": "Pd",
                "properties": {}
            },
            {
                "species": [
                    {
                        "element": "Pd",
                        "occu": 1
                    }
                ],
                "abc": [
                    0.0,
                    0.5,
                    0.5
                ],
                "xyz": [
                    -1.51069067,
                    -0.87219746,
                    6.16135461
                ],
                "label": "Pd",
                "properties": {}
            },
            {
                "species": [
                    {
                        "element": "Pd",
                        "occu": 1
                    }
                ],
                "abc": [
                    0.5,
                    0.5,
                    0.0
                ],
                "xyz": [
                    0.0,
                    1.74439592,
                    6.16135461
                ],
                "label": "Pd",
                "properties": {}
            },
            {
                "species": [
                    {
                        "element": "Pd",
                        "occu": 1
                    }
                ],
                "abc": [
                    0.0,
                    0.0,
                    0.0
                ],
                "xyz": [
                    0.0,
                    0.0,
                    0.0
                ],
                "label": "Pd",
                "properties": {}
            },
            {
                "species": [
                    {
                        "element": "O",
                        "occu": 1
                    }
                ],
                "abc": [
                    0.3863648,
                    0.88781358,
                    0.88781358
                ],
                "xyz": [
                    -1.515067986857765,
                    -0.8747243181073974,
                    13.320799129528936
                ],
                "label": "O",
                "properties": {}
            },
            {
                "species": [
                    {
                        "element": "O",
                        "occu": 1
                    }
                ],
                "abc": [
                    0.88781358,
                    0.88781358,
                    0.3863648
                ],
                "xyz": [
                    0.0,
                    1.7494507982067553,
                    13.320799129528936
                ],
                "label": "O",
                "properties": {}
            },
            {
                "species": [
                    {
                        "element": "O",
                        "occu": 1
                    }
                ],
                "abc": [
                    0.88781358,
                    0.3863648,
                    0.88781358
                ],
                "xyz": [
                    1.515067986857765,
                    -0.8747243181073974,
                    13.320799129528936
                ],
                "label": "O",
                "properties": {}
            },
            {
                "species": [
                    {
                        "element": "O",
                        "occu": 1
                    }
                ],
                "abc": [
                    0.6136352,
                    0.11218642,
                    0.11218642
                ],
                "xyz": [
                    1.5150679868577654,
                    0.8747253181073977,
                    5.163264700471065
                ],
                "label": "O",
                "properties": {}
            },
            {
                "species": [
                    {
                        "element": "O",
                        "occu": 1
                    }
                ],
                "abc": [
                    0.11218642,
                    0.11218642,
                    0.6136352
                ],
                "xyz": [
                    0.0,
                    -1.7494497982067552,
                    5.163264700471065
                ],
                "label": "O",
                "properties": {}
            },
            {
                "species": [
                    {
                        "element": "O",
                        "occu": 1
                    }
                ],
                "abc": [
                    0.11218642,
                    0.6136352,
                    0.11218642
                ],
                "xyz": [
                    -1.5150679868577654,
                    0.8747253181073977,
                    5.163264700471065
                ],
                "label": "O",
                "properties": {}
            }
        ]
    },
    "spacegroup": {
        "source": "spglib",
        "symbol": "R-3m",
        "number": 166,
        "point_group": "-3m",
        "crystal_system": "trigonal",
        "hall": "-R 3 2\""
    },
    "dielectric": {
        "epsilon_ionic": [
            [
                2.62007867,
                -1e-08,
                -0.0
            ],
            [
                -1e-08,
                2.62007399,
                -1.88e-06
            ],
            [
                -0.0,
                -1.88e-06,
                1.64139552
            ]
        ],
        "epsilon_ionic_avg": 2.2938493933333324,
        "epsilon_ionic_eig": [
            2.620078670021366,
            2.620073989982244,
            1.6413955199963888
        ],
        "epsilon_electronic": [
            [
                6.36433223,
                0.0,
                0.0
            ],
            [
                0.0,
                6.36432947,
                -1.5e-07
            ],
            [
                0.0,
                -1.5e-07,
                2.86429615
            ]
        ],
        "epsilon_electronic_avg": 5.197652616666666,
        "epsilon_electronic_eig": [
            2.8642961499999933,
            6.364329470000007,
            6.36433223
        ]
    },
    "phonon": {
        "lowest_freq": -0.016281998023343677,
        "frequency": [
            -0.016281998023343677,
            -0.016281994495887343,
            -0.004790621505102775,
            2.99274472022263,
            2.992745344953766,
            4.058042238640382,
            4.058043111919002,
            4.1431452436936445,
            4.143145249592548,
            4.937108898922951,
            5.09912549907978,
            5.320072139293301,
            5.3200724378984265,
            6.147469094859597,
            6.449817368854139,
            7.269115314760713,
            9.540216582940102,
            9.540218068777074,
            11.359708322773628,
            11.359708914426447,
            12.662613485574218,
            14.180226638248724,
            14.668050177212132,
            14.73992397422081,
            14.739926436473434,
            14.972818997454302,
            14.972820213511817,
            15.09022757211302,
            15.090227604504861,
            15.486681540110506,
            15.525937256045246,
            15.525938082469207,
            16.77280863183737,
            16.77281016181444,
            16.853284997038816,
            16.867652455156264
        ]
    },
    "born_effective_charge": {
        "avg_abs_trace": 1.6530961111111109,
        "tensors": [
            [
                [
                    0.93064,
                    1e-05,
                    -5e-05
                ],
                [
                    0.0,
                    0.93064,
                    -1e-05
                ],
                [
                    -0.0,
                    -0.0,
                    1.9284
                ]
            ],
            [
                [
                    0.93064,
                    -1e-05,
                    5e-05
                ],
                [
                    0.0,
                    0.93064,
                    0.0
                ],
                [
                    -0.0,
                    -0.0,
                    1.92842
                ]
            ],
            [
                [
                    1.28195,
                    1.20693,
                    0.70517
                ],
                [
                    1.20693,
                    2.67557,
                    -0.40713
                ],
                [
                    0.35374,
                    -0.20423,
                    0.20191
                ]
            ],
            [
                [
                    1.28195,
                    -1.20693,
                    -0.70517
                ],
                [
                    -1.20693,
                    2.67557,
                    -0.40713
                ],
                [
                    -0.35374,
                    -0.20423,
                    0.20191
                ]
            ],
            [
                [
                    3.37241,
                    0.0,
                    0.0
                ],
                [
                    0.0,
                    0.5851,
                    0.81426
                ],
                [
                    -0.0,
                    0.40847,
                    0.20191
                ]
            ],
            [
                [
                    4.46105,
                    0.0,
                    0.0
                ],
                [
                    0.0,
                    4.46106,
                    0.0
                ],
                [
                    -0.0,
                    -0.0,
                    0.77596
                ]
            ],
            [
                [
                    -2.27439,
                    -0.39995,
                    -0.01455
                ],
                [
                    -0.40029,
                    -1.81201,
                    -0.00841
                ],
                [
                    -0.03914,
                    -0.02259,
                    -0.87311
                ]
            ],
            [
                [
                    -1.58087,
                    0.00063,
                    0.00047
                ],
                [
                    0.0,
                    -2.50536,
                    0.01681
                ],
                [
                    -0.0,
                    0.04519,
                    -0.87311
                ]
            ],
            [
                [
                    -2.27406,
                    0.40067,
                    0.01456
                ],
                [
                    0.40029,
                    -1.81201,
                    -0.00841
                ],
                [
                    0.03914,
                    -0.02259,
                    -0.87311
                ]
            ],
            [
                [
                    -2.27406,
                    -0.40067,
                    -0.01456
                ],
                [
                    -0.40036,
                    -1.81193,
                    -0.00843
                ],
                [
                    -0.03916,
                    -0.02261,
                    -0.87306
                ]
            ],
            [
                [
                    -1.58087,
                    -0.00063,
                    -0.00047
                ],
                [
                    0.0,
                    -2.50534,
                    0.01686
                ],
                [
                    -0.0,
                    0.04522,
                    -0.87306
                ]
            ],
            [
                [
                    -2.27439,
                    0.39995,
                    0.01455
                ],
                [
                    0.40036,
                    -1.81193,
                    -0.00843
                ],
                [
                    0.03916,
                    -0.02261,
                    -0.87306
                ]
            ]
        ]
    },
    "band_gap": 0.9413,
    "is_direct": false,
    "formula": "KPd2O3"
}