{
    "mp_id": "mp-1211701",
    "nelements": 5,
    "nsites": 14,
    "elements": [
        "K",
        "O",
        "Rb",
        "V",
        "Y"
    ],
    "structure": {
        "@module": "pymatgen.core.structure",
        "@class": "Structure",
        "charge": null,
        "lattice": {
            "matrix": [
                [
                    5.94285377,
                    0.0,
                    0.0
                ],
                [
                    -2.97142689,
                    5.14666212,
                    0.0
                ],
                [
                    0.0,
                    0.0,
                    7.64905073
                ]
            ],
            "a": 5.94285377,
            "b": 5.942853585615076,
            "c": 7.64905073,
            "alpha": 90.0,
            "beta": 90.0,
            "gamma": 120.00000108200571,
            "volume": 233.95279768841465
        },
        "sites": [
            {
                "species": [
                    {
                        "element": "K",
                        "occu": 1
                    }
                ],
                "abc": [
                    0.333333,
                    0.666667,
                    0.68827121
                ],
                "xyz": [
                    -2.9747602201535273e-06,
                    3.43110979555404,
                    5.264621401288483
                ],
                "label": "K",
                "properties": {}
            },
            {
                "species": [
                    {
                        "element": "K",
                        "occu": 1
                    }
                ],
                "abc": [
                    0.666667,
                    0.333333,
                    0.31172879
                ],
                "xyz": [
                    2.9714298547602205,
                    1.71555232444596,
                    2.3844293287115166
                ],
                "label": "K",
                "properties": {}
            },
            {
                "species": [
                    {
                        "element": "Rb",
                        "occu": 1
                    }
                ],
                "abc": [
                    0.0,
                    0.0,
                    0.0
                ],
                "xyz": [
                    0.0,
                    0.0,
                    0.0
                ],
                "label": "Rb",
                "properties": {}
            },
            {
                "species": [
                    {
                        "element": "Y",
                        "occu": 1
                    }
                ],
                "abc": [
                    0.0,
                    0.0,
                    0.5
                ],
                "xyz": [
                    0.0,
                    0.0,
                    3.824525365
                ],
                "label": "Y",
                "properties": {}
            },
            {
                "species": [
                    {
                        "element": "V",
                        "occu": 1
                    }
                ],
                "abc": [
                    0.333333,
                    0.666667,
                    0.24619295
                ],
                "xyz": [
                    -2.9747602201535273e-06,
                    3.43110979555404,
                    1.8831423639183533
                ],
                "label": "V",
                "properties": {}
            },
            {
                "species": [
                    {
                        "element": "V",
                        "occu": 1
                    }
                ],
                "abc": [
                    0.666667,
                    0.333333,
                    0.75380705
                ],
                "xyz": [
                    2.9714298547602205,
                    1.71555232444596,
                    5.765908366081646
                ],
                "label": "V",
                "properties": {}
            },
            {
                "species": [
                    {
                        "element": "O",
                        "occu": 1
                    }
                ],
                "abc": [
                    0.333333,
                    0.666667,
                    0.0285928
                ],
                "xyz": [
                    -2.9747602201535273e-06,
                    3.43110979555404,
                    0.21870777771274402
                ],
                "label": "O",
                "properties": {}
            },
            {
                "species": [
                    {
                        "element": "O",
                        "occu": 1
                    }
                ],
                "abc": [
                    0.666667,
                    0.333333,
                    0.9714072
                ],
                "xyz": [
                    2.9714298547602205,
                    1.71555232444596,
                    7.430342952287256
                ],
                "label": "O",
                "properties": {}
            },
            {
                "species": [
                    {
                        "element": "O",
                        "occu": 1
                    }
                ],
                "abc": [
                    0.17417077,
                    0.82582923,
                    0.32638067
                ],
                "xyz": [
                    -1.4188197634516917,
                    4.250264015629767,
                    2.496502302121389
                ],
                "label": "O",
                "properties": {}
            },
            {
                "species": [
                    {
                        "element": "O",
                        "occu": 1
                    }
                ],
                "abc": [
                    0.82582923,
                    0.17417077,
                    0.67361933
                ],
                "xyz": [
                    4.390246643451692,
                    0.8963981043702325,
                    5.15254842787861
                ],
                "label": "O",
                "properties": {}
            },
            {
                "species": [
                    {
                        "element": "O",
                        "occu": 1
                    }
                ],
                "abc": [
                    0.17417077,
                    0.34834155,
                    0.32638067
                ],
                "xyz": [
                    -3.1455976712280176e-08,
                    1.7927962602070862,
                    2.496502302121389
                ],
                "label": "O",
                "properties": {}
            },
            {
                "species": [
                    {
                        "element": "O",
                        "occu": 1
                    }
                ],
                "abc": [
                    0.82582923,
                    0.65165845,
                    0.67361933
                ],
                "xyz": [
                    2.9714269114559766,
                    3.353865859792914,
                    5.15254842787861
                ],
                "label": "O",
                "properties": {}
            },
            {
                "species": [
                    {
                        "element": "O",
                        "occu": 1
                    }
                ],
                "abc": [
                    0.65165845,
                    0.82582923,
                    0.32638067
                ],
                "xyz": [
                    1.4188196957648622,
                    4.250264015629767,
                    2.496502302121389
                ],
                "label": "O",
                "properties": {}
            },
            {
                "species": [
                    {
                        "element": "O",
                        "occu": 1
                    }
                ],
                "abc": [
                    0.34834155,
                    0.17417077,
                    0.67361933
                ],
                "xyz": [
                    1.552607184235138,
                    0.8963981043702325,
                    5.15254842787861
                ],
                "label": "O",
                "properties": {}
            }
        ]
    },
    "spacegroup": {
        "source": "spglib",
        "symbol": "P-3m1",
        "number": 164,
        "point_group": "-3m",
        "crystal_system": "trigonal",
        "hall": "-P 3 2\""
    },
    "dielectric": {
        "epsilon_ionic": [
            [
                12.54461393,
                -1e-08,
                1e-08
            ],
            [
                -1e-08,
                12.54210732,
                0.00018411
            ],
            [
                1e-08,
                0.00018411,
                4.59723984
            ]
        ],
        "epsilon_ionic_avg": 9.894653696666671,
        "epsilon_ionic_eig": [
            12.544613930000043,
            4.597239835733539,
            12.54210732426643
        ],
        "epsilon_electronic": [
            [
                3.41454762,
                0.0,
                0.0
            ],
            [
                0.0,
                3.41454691,
                -0.0
            ],
            [
                -0.0,
                0.0,
                3.3298063
            ]
        ],
        "epsilon_electronic_avg": 3.3863002766666668,
        "epsilon_electronic_eig": [
            3.41454762,
            3.41454691,
            3.3298063
        ]
    },
    "phonon": {
        "lowest_freq": -0.17939616487319057,
        "frequency": [
            -0.17939616487319057,
            -0.1793961458003078,
            -0.06916308216705089,
            0.7911179843315028,
            0.7911180631086657,
            1.115877386618122,
            1.1158774610851225,
            1.8142520725549307,
            2.8539135829347675,
            2.8898861074178006,
            2.8898863146163816,
            3.277445009965787,
            3.5082480089486623,
            3.5784619740809163,
            3.5784623258132036,
            3.7110569835581453,
            3.7110573655303694,
            4.266400936920921,
            4.557989399198712,
            4.557989860332086,
            6.091848751683358,
            6.111279269554844,
            6.111279869429539,
            7.375411048121911,
            8.71189796921313,
            8.711898207668757,
            9.526593809485727,
            9.526594053203604,
            10.286430920683744,
            10.583774746195191,
            10.719986691755789,
            10.719987250320202,
            10.870363899745625,
            10.87036451803251,
            22.50247161059434,
            22.502473076834015,
            22.645694929296443,
            22.64569644022456,
            24.37455235519566,
            25.853506477962107,
            27.303230880200175,
            28.19866697321399
        ]
    },
    "born_effective_charge": {
        "avg_abs_trace": 2.2358933333333337,
        "tensors": [
            [
                [
                    1.1462,
                    3e-05,
                    0.0
                ],
                [
                    0.0,
                    1.14603,
                    -4e-05
                ],
                [
                    -0.0,
                    0.0,
                    1.33534
                ]
            ],
            [
                [
                    1.1462,
                    -3e-05,
                    -0.0
                ],
                [
                    0.0,
                    1.14607,
                    -4e-05
                ],
                [
                    -0.0,
                    0.0,
                    1.33536
                ]
            ],
            [
                [
                    1.27825,
                    0.0,
                    0.0
                ],
                [
                    0.0,
                    1.27816,
                    1e-05
                ],
                [
                    -0.0,
                    0.0,
                    1.26995
                ]
            ],
            [
                [
                    5.25663,
                    0.0,
                    0.0
                ],
                [
                    0.0,
                    5.25658,
                    0.00053
                ],
                [
                    -0.0,
                    0.0,
                    4.42131
                ]
            ],
            [
                [
                    3.53333,
                    -0.00022,
                    -2e-05
                ],
                [
                    0.0,
                    3.53335,
                    0.00013
                ],
                [
                    -0.0,
                    0.0,
                    3.40279
                ]
            ],
            [
                [
                    3.53333,
                    0.00022,
                    2e-05
                ],
                [
                    0.0,
                    3.5334,
                    0.0001
                ],
                [
                    -0.0,
                    0.0,
                    3.40147
                ]
            ],
            [
                [
                    -0.69293,
                    4e-05,
                    -1e-05
                ],
                [
                    0.0,
                    -0.69277,
                    -0.00013
                ],
                [
                    -0.0,
                    0.0,
                    -3.09463
                ]
            ],
            [
                [
                    -0.69293,
                    -4e-05,
                    1e-05
                ],
                [
                    0.0,
                    -0.69288,
                    -4e-05
                ],
                [
                    -0.0,
                    0.0,
                    -3.09118
                ]
            ],
            [
                [
                    -3.09882,
                    1.17982,
                    1.1685
                ],
                [
                    1.17933,
                    -1.7371,
                    -0.67464
                ],
                [
                    0.94555,
                    -0.54591,
                    -1.49682
                ]
            ],
            [
                [
                    -3.09925,
                    1.17926,
                    1.16833
                ],
                [
                    1.17942,
                    -1.73702,
                    -0.67461
                ],
                [
                    0.94466,
                    -0.5454,
                    -1.49665
                ]
            ],
            [
                [
                    -1.05597,
                    -2e-05,
                    -0.00019
                ],
                [
                    0.0,
                    -3.77981,
                    1.34904
                ],
                [
                    -0.0,
                    1.09182,
                    -1.49682
                ]
            ],
            [
                [
                    -1.05597,
                    2e-05,
                    0.00019
                ],
                [
                    -0.0,
                    -3.77991,
                    1.34895
                ],
                [
                    -0.0,
                    1.0908,
                    -1.49665
                ]
            ],
            [
                [
                    -3.09925,
                    -1.17926,
                    -1.16833
                ],
                [
                    -1.17933,
                    -1.7371,
                    -0.67464
                ],
                [
                    -0.94555,
                    -0.54591,
                    -1.49682
                ]
            ],
            [
                [
                    -3.09882,
                    -1.17982,
                    -1.1685
                ],
                [
                    -1.17942,
                    -1.73702,
                    -0.67461
                ],
                [
                    -0.94466,
                    -0.5454,
                    -1.49665
                ]
            ]
        ]
    },
    "band_gap": 3.4469000000000003,
    "is_direct": false,
    "formula": "K2RbYV2O8"
}