{
    "mp_id": "mp-19178",
    "nelements": 3,
    "nsites": 8,
    "elements": [
        "Ag",
        "Co",
        "O"
    ],
    "structure": {
        "@module": "pymatgen.core.structure",
        "@class": "Structure",
        "charge": null,
        "lattice": {
            "matrix": [
                [
                    2.8341697,
                    0.0,
                    0.0
                ],
                [
                    -1.41708485,
                    2.45446291,
                    0.0
                ],
                [
                    0.0,
                    0.0,
                    12.14303081
                ]
            ],
            "a": 2.8341697,
            "b": 2.8341696577066786,
            "c": 12.14303081,
            "alpha": 90.0,
            "beta": 90.0,
            "gamma": 120.00000049363729,
            "volume": 84.47134734766668
        },
        "sites": [
            {
                "species": [
                    {
                        "element": "Co",
                        "occu": 1
                    }
                ],
                "abc": [
                    0.0,
                    0.0,
                    0.0
                ],
                "xyz": [
                    0.0,
                    0.0,
                    0.0
                ],
                "label": "Co",
                "properties": {}
            },
            {
                "species": [
                    {
                        "element": "Co",
                        "occu": 1
                    }
                ],
                "abc": [
                    0.0,
                    0.0,
                    0.5
                ],
                "xyz": [
                    0.0,
                    0.0,
                    6.071515405
                ],
                "label": "Co",
                "properties": {}
            },
            {
                "species": [
                    {
                        "element": "Ag",
                        "occu": 1
                    }
                ],
                "abc": [
                    0.666667,
                    0.333333,
                    0.75
                ],
                "xyz": [
                    1.41708626708485,
                    0.8181534851790301,
                    9.107273107500001
                ],
                "label": "Ag",
                "properties": {}
            },
            {
                "species": [
                    {
                        "element": "Ag",
                        "occu": 1
                    }
                ],
                "abc": [
                    0.333333,
                    0.666667,
                    0.25
                ],
                "xyz": [
                    -1.4170848500194566e-06,
                    1.6363094248209702,
                    3.0357577025
                ],
                "label": "Ag",
                "properties": {}
            },
            {
                "species": [
                    {
                        "element": "O",
                        "occu": 1
                    }
                ],
                "abc": [
                    0.666667,
                    0.333333,
                    0.57869734
                ],
                "xyz": [
                    1.41708626708485,
                    0.8181534851790301,
                    7.027139629285045
                ],
                "label": "O",
                "properties": {}
            },
            {
                "species": [
                    {
                        "element": "O",
                        "occu": 1
                    }
                ],
                "abc": [
                    0.333333,
                    0.666667,
                    0.42130266
                ],
                "xyz": [
                    -1.4170848500194566e-06,
                    1.6363094248209702,
                    5.1158911807149545
                ],
                "label": "O",
                "properties": {}
            },
            {
                "species": [
                    {
                        "element": "O",
                        "occu": 1
                    }
                ],
                "abc": [
                    0.666667,
                    0.333333,
                    0.92130266
                ],
                "xyz": [
                    1.41708626708485,
                    0.8181534851790301,
                    11.187406585714957
                ],
                "label": "O",
                "properties": {}
            },
            {
                "species": [
                    {
                        "element": "O",
                        "occu": 1
                    }
                ],
                "abc": [
                    0.333333,
                    0.666667,
                    0.07869734
                ],
                "xyz": [
                    -1.4170848500194566e-06,
                    1.6363094248209702,
                    0.9556242242850456
                ],
                "label": "O",
                "properties": {}
            }
        ]
    },
    "spacegroup": {
        "source": "spglib",
        "symbol": "P6_3/mmc",
        "number": 194,
        "point_group": "6/mmm",
        "crystal_system": "hexagonal",
        "hall": "-P 6c 2c"
    },
    "dielectric": {
        "epsilon_ionic": [
            [
                2.7731819,
                2e-08,
                0.0
            ],
            [
                2e-08,
                2.77249051,
                1e-08
            ],
            [
                0.0,
                1e-08,
                1.0310417
            ]
        ],
        "epsilon_ionic_avg": 2.1922380366666667,
        "epsilon_ionic_eig": [
            2.7731819000005786,
            2.7724905099994213,
            1.0310417
        ],
        "epsilon_electronic": [
            [
                9.61309874,
                0.0,
                0.0
            ],
            [
                0.0,
                9.61309703,
                0.0
            ],
            [
                -0.0,
                0.0,
                9.35787919
            ]
        ],
        "epsilon_electronic_avg": 9.528024986666667,
        "epsilon_electronic_eig": [
            9.61309874,
            9.61309703,
            9.35787919
        ]
    },
    "phonon": {
        "lowest_freq": -0.026516012023509405,
        "frequency": [
            -0.026516012023509405,
            -0.0265160096731546,
            -0.007950448524140773,
            0.5022208547754218,
            0.5022208985729079,
            1.6799976945065058,
            1.6799978472567907,
            2.4231515424289336,
            2.4231517592788703,
            5.499484835175308,
            6.295613520500245,
            8.724809890596294,
            14.773583735140491,
            14.773585050312892,
            15.022225996736877,
            15.02222733894874,
            17.75137031677259,
            17.751371900087754,
            17.99703084927048,
            17.997032410973304,
            18.865934110388636,
            19.572019081535228,
            19.997257025105935,
            20.076328792388136
        ]
    },
    "born_effective_charge": {
        "avg_abs_trace": 1.5551670833333333,
        "tensors": [
            [
                [
                    2.77668,
                    0.0,
                    0.0
                ],
                [
                    -0.0,
                    2.77634,
                    -0.00023
                ],
                [
                    -0.0,
                    0.0,
                    0.35356
                ]
            ],
            [
                [
                    2.77668,
                    0.0,
                    0.0
                ],
                [
                    -0.0,
                    2.77634,
                    0.00023
                ],
                [
                    0.0,
                    0.0,
                    0.35356
                ]
            ],
            [
                [
                    0.72896,
                    8e-05,
                    0.0
                ],
                [
                    -0.0,
                    0.72879,
                    0.0
                ],
                [
                    0.0,
                    -0.0,
                    1.9666
                ]
            ],
            [
                [
                    0.72896,
                    -8e-05,
                    0.0
                ],
                [
                    0.0,
                    0.72894,
                    0.0
                ],
                [
                    0.0,
                    0.0,
                    1.9666
                ]
            ],
            [
                [
                    -1.75282,
                    0.00066,
                    6e-05
                ],
                [
                    -0.0,
                    -1.75249,
                    3e-05
                ],
                [
                    0.0,
                    0.0,
                    -1.15987
                ]
            ],
            [
                [
                    -1.75282,
                    -0.00066,
                    -6e-05
                ],
                [
                    0.0,
                    -1.75271,
                    -0.00023
                ],
                [
                    0.0,
                    0.0,
                    -1.16029
                ]
            ],
            [
                [
                    -1.75282,
                    0.00066,
                    -6e-05
                ],
                [
                    -0.0,
                    -1.75249,
                    -3e-05
                ],
                [
                    -0.0,
                    0.0,
                    -1.16029
                ]
            ],
            [
                [
                    -1.75282,
                    -0.00066,
                    6e-05
                ],
                [
                    0.0,
                    -1.75271,
                    0.00023
                ],
                [
                    0.0,
                    -0.0,
                    -1.15987
                ]
            ]
        ]
    },
    "band_gap": 1.3506,
    "is_direct": false,
    "formula": "CoAgO2"
}