{
    "mp_id": "mp-12797",
    "nelements": 4,
    "nsites": 24,
    "elements": [
        "Ba",
        "Be",
        "O",
        "Si"
    ],
    "structure": {
        "@module": "pymatgen.core.structure",
        "@class": "Structure",
        "charge": null,
        "lattice": {
            "matrix": [
                [
                    11.6495217,
                    0.0,
                    0.0
                ],
                [
                    0.0,
                    4.91955893,
                    0.0
                ],
                [
                    0.0,
                    0.0,
                    4.67280618
                ]
            ],
            "a": 11.6495217,
            "b": 4.91955893,
            "c": 4.67280618,
            "alpha": 90.0,
            "beta": 90.0,
            "gamma": 90.0,
            "volume": 267.80089834196497
        },
        "sites": [
            {
                "species": [
                    {
                        "element": "Ba",
                        "occu": 1
                    }
                ],
                "abc": [
                    0.0,
                    0.20233546,
                    0.00829275
                ],
                "xyz": [
                    0.0,
                    0.9954012190986578,
                    0.038750413449195
                ],
                "label": "Ba",
                "properties": {}
            },
            {
                "species": [
                    {
                        "element": "Ba",
                        "occu": 1
                    }
                ],
                "abc": [
                    0.5,
                    0.79766454,
                    0.50829275
                ],
                "xyz": [
                    5.82476085,
                    3.924157710901342,
                    2.375153503449195
                ],
                "label": "Ba",
                "properties": {}
            },
            {
                "species": [
                    {
                        "element": "Be",
                        "occu": 1
                    }
                ],
                "abc": [
                    0.25073617,
                    0.1687481,
                    0.5179079
                ],
                "xyz": [
                    2.9209564533898886,
                    0.830166222275533,
                    2.420083235790822
                ],
                "label": "Be",
                "properties": {}
            },
            {
                "species": [
                    {
                        "element": "Be",
                        "occu": 1
                    }
                ],
                "abc": [
                    0.24926383,
                    0.8312519,
                    0.0179079
                ],
                "xyz": [
                    2.9038043966101106,
                    4.089392707724468,
                    0.083680145790822
                ],
                "label": "Be",
                "properties": {}
            },
            {
                "species": [
                    {
                        "element": "Be",
                        "occu": 1
                    }
                ],
                "abc": [
                    0.74926383,
                    0.1687481,
                    0.5179079
                ],
                "xyz": [
                    8.72856524661011,
                    0.830166222275533,
                    2.420083235790822
                ],
                "label": "Be",
                "properties": {}
            },
            {
                "species": [
                    {
                        "element": "Be",
                        "occu": 1
                    }
                ],
                "abc": [
                    0.75073617,
                    0.8312519,
                    0.0179079
                ],
                "xyz": [
                    8.745717303389888,
                    4.089392707724468,
                    0.083680145790822
                ],
                "label": "Be",
                "properties": {}
            },
            {
                "species": [
                    {
                        "element": "Si",
                        "occu": 1
                    }
                ],
                "abc": [
                    0.37154606,
                    0.32566141,
                    0.03117466
                ],
                "xyz": [
                    4.328333888519502,
                    1.6021104977218912,
                    0.1456731439073988
                ],
                "label": "Si",
                "properties": {}
            },
            {
                "species": [
                    {
                        "element": "Si",
                        "occu": 1
                    }
                ],
                "abc": [
                    0.12845394,
                    0.67433859,
                    0.53117466
                ],
                "xyz": [
                    1.4964269614804977,
                    3.3174484322781086,
                    2.482076233907399
                ],
                "label": "Si",
                "properties": {}
            },
            {
                "species": [
                    {
                        "element": "Si",
                        "occu": 1
                    }
                ],
                "abc": [
                    0.87154606,
                    0.67433859,
                    0.53117466
                ],
                "xyz": [
                    10.153094738519501,
                    3.3174484322781086,
                    2.482076233907399
                ],
                "label": "Si",
                "properties": {}
            },
            {
                "species": [
                    {
                        "element": "Si",
                        "occu": 1
                    }
                ],
                "abc": [
                    0.62845394,
                    0.32566141,
                    0.03117466
                ],
                "xyz": [
                    7.321187811480497,
                    1.6021104977218912,
                    0.1456731439073988
                ],
                "label": "Si",
                "properties": {}
            },
            {
                "species": [
                    {
                        "element": "O",
                        "occu": 1
                    }
                ],
                "abc": [
                    0.0,
                    0.7786938,
                    0.41761198
                ],
                "xyz": [
                    0.0,
                    3.830830037525634,
                    1.9514198409860364
                ],
                "label": "O",
                "properties": {}
            },
            {
                "species": [
                    {
                        "element": "O",
                        "occu": 1
                    }
                ],
                "abc": [
                    0.5,
                    0.2213062,
                    0.91761198
                ],
                "xyz": [
                    5.82476085,
                    1.088728892474366,
                    4.287822930986037
                ],
                "label": "O",
                "properties": {}
            },
            {
                "species": [
                    {
                        "element": "O",
                        "occu": 1
                    }
                ],
                "abc": [
                    0.63247223,
                    0.27109914,
                    0.373312
                ],
                "xyz": [
                    7.36799896803239,
                    1.3336881951023203,
                    1.7444146206681599
                ],
                "label": "O",
                "properties": {}
            },
            {
                "species": [
                    {
                        "element": "O",
                        "occu": 1
                    }
                ],
                "abc": [
                    0.86752777,
                    0.72890086,
                    0.873312
                ],
                "xyz": [
                    10.10628358196761,
                    3.58587073489768,
                    4.0808177106681605
                ],
                "label": "O",
                "properties": {}
            },
            {
                "species": [
                    {
                        "element": "O",
                        "occu": 1
                    }
                ],
                "abc": [
                    0.36752777,
                    0.27109914,
                    0.373312
                ],
                "xyz": [
                    4.281522731967608,
                    1.3336881951023203,
                    1.7444146206681599
                ],
                "label": "O",
                "properties": {}
            },
            {
                "species": [
                    {
                        "element": "O",
                        "occu": 1
                    }
                ],
                "abc": [
                    0.13247223,
                    0.72890086,
                    0.873312
                ],
                "xyz": [
                    1.5432381180323909,
                    3.58587073489768,
                    4.0808177106681605
                ],
                "label": "O",
                "properties": {}
            },
            {
                "species": [
                    {
                        "element": "O",
                        "occu": 1
                    }
                ],
                "abc": [
                    0.63821691,
                    0.64745056,
                    0.96094659
                ],
                "xyz": [
                    7.434921742351947,
                    3.1851711841815007,
                    4.490317164401927
                ],
                "label": "O",
                "properties": {}
            },
            {
                "species": [
                    {
                        "element": "O",
                        "occu": 1
                    }
                ],
                "abc": [
                    0.86178309,
                    0.35254944,
                    0.46094659
                ],
                "xyz": [
                    10.039360807648052,
                    1.734387745818499,
                    2.1539140744019263
                ],
                "label": "O",
                "properties": {}
            },
            {
                "species": [
                    {
                        "element": "O",
                        "occu": 1
                    }
                ],
                "abc": [
                    0.13821691,
                    0.35254944,
                    0.46094659
                ],
                "xyz": [
                    1.6101608923519468,
                    1.734387745818499,
                    2.1539140744019263
                ],
                "label": "O",
                "properties": {}
            },
            {
                "species": [
                    {
                        "element": "O",
                        "occu": 1
                    }
                ],
                "abc": [
                    0.36178309,
                    0.64745056,
                    0.96094659
                ],
                "xyz": [
                    4.214599957648052,
                    3.1851711841815007,
                    4.490317164401927
                ],
                "label": "O",
                "properties": {}
            },
            {
                "species": [
                    {
                        "element": "O",
                        "occu": 1
                    }
                ],
                "abc": [
                    0.77547491,
                    0.86561596,
                    0.36890799
                ],
                "xyz": [
                    9.033911791850546,
                    4.258448725968522,
                    1.7238355355233783
                ],
                "label": "O",
                "properties": {}
            },
            {
                "species": [
                    {
                        "element": "O",
                        "occu": 1
                    }
                ],
                "abc": [
                    0.72452509,
                    0.13438404,
                    0.86890799
                ],
                "xyz": [
                    8.440370758149452,
                    0.6611102040314772,
                    4.060238625523378
                ],
                "label": "O",
                "properties": {}
            },
            {
                "species": [
                    {
                        "element": "O",
                        "occu": 1
                    }
                ],
                "abc": [
                    0.27547491,
                    0.13438404,
                    0.86890799
                ],
                "xyz": [
                    3.209150941850547,
                    0.6611102040314772,
                    4.060238625523378
                ],
                "label": "O",
                "properties": {}
            },
            {
                "species": [
                    {
                        "element": "O",
                        "occu": 1
                    }
                ],
                "abc": [
                    0.22452509,
                    0.86561596,
                    0.36890799
                ],
                "xyz": [
                    2.615609908149453,
                    4.258448725968522,
                    1.7238355355233783
                ],
                "label": "O",
                "properties": {}
            }
        ]
    },
    "spacegroup": {
        "source": "spglib",
        "symbol": "Pmn2_1",
        "number": 31,
        "point_group": "mm2",
        "crystal_system": "orthorhombic",
        "hall": "P 2ac -2"
    },
    "dielectric": {
        "epsilon_ionic": [
            [
                6.9460104,
                -0.0,
                3.7e-07
            ],
            [
                -0.0,
                6.5477299,
                -7e-08
            ],
            [
                3.7e-07,
                -7e-08,
                5.96052573
            ]
        ],
        "epsilon_ionic_avg": 6.484755343333333,
        "epsilon_ionic_eig": [
            6.946010400000141,
            5.96052572999985,
            6.547729900000006
        ],
        "epsilon_electronic": [
            [
                3.0696291,
                0.0,
                0.0
            ],
            [
                0.0,
                3.11222161,
                0.0
            ],
            [
                0.0,
                0.0,
                3.09741937
            ]
        ],
        "epsilon_electronic_avg": 3.0930900266666668,
        "epsilon_electronic_eig": [
            3.0696291,
            3.11222161,
            3.09741937
        ]
    },
    "phonon": {
        "lowest_freq": -0.044725070440259924,
        "frequency": [
            -0.044725070440259924,
            -0.039861689025339375,
            -0.03665707843874941,
            2.1322550245764145,
            2.3619459768263025,
            2.793583998086733,
            2.867972568048254,
            3.045830547610809,
            3.21871502848454,
            3.4927888272056644,
            3.6133751502167084,
            5.24667697014435,
            5.55512955632021,
            5.94995667686643,
            6.08290203827199,
            6.132847039287364,
            6.21736581708041,
            6.510806766310389,
            7.0848910244066605,
            7.843075610238505,
            8.796262021373089,
            8.852604688145101,
            9.575274539028653,
            9.966411847839742,
            10.162543599892222,
            10.795227377666565,
            11.124012294493632,
            11.277852913177245,
            11.309468936659693,
            12.347496630308358,
            12.511988590067771,
            12.634371104319392,
            12.884501848751118,
            13.211025846997513,
            13.389915442172619,
            13.576579887045789,
            14.30352451001593,
            14.842126124756476,
            14.89304518301615,
            15.753953948884757,
            16.630864057966747,
            16.636461542729098,
            17.800133882626472,
            18.03018798570756,
            18.969274520340253,
            19.002489896280697,
            20.202564443413415,
            20.415875767290355,
            21.152728916438214,
            21.334986610832665,
            21.550099327963878,
            21.820255904678778,
            21.86060921524197,
            22.61669481557639,
            22.630691676868405,
            23.49187796248941,
            23.743389909213626,
            23.926910181495,
            26.396084721386682,
            26.782800930098333,
            27.353930711904034,
            27.411341273902508,
            27.94277271054075,
            27.971573186914107,
            28.22324464125131,
            28.606512518033373,
            28.72703448398638,
            28.803874871296728,
            29.213145008192928,
            29.31804502383091,
            29.620789379056863,
            30.783141731496045
        ]
    },
    "born_effective_charge": {
        "avg_abs_trace": 2.104870555555556,
        "tensors": [
            [
                [
                    2.66259,
                    0.0,
                    0.0
                ],
                [
                    0.0,
                    2.82445,
                    0.06695
                ],
                [
                    -0.0,
                    0.05772,
                    2.73573
                ]
            ],
            [
                [
                    2.66259,
                    -0.0,
                    0.0
                ],
                [
                    0.0,
                    2.82447,
                    -0.06694
                ],
                [
                    -0.0,
                    -0.05772,
                    2.73573
                ]
            ],
            [
                [
                    1.90518,
                    0.01357,
                    0.09592
                ],
                [
                    -0.12398,
                    1.85408,
                    0.03943
                ],
                [
                    -0.12693,
                    -0.071,
                    1.88597
                ]
            ],
            [
                [
                    1.90518,
                    0.01357,
                    -0.09592
                ],
                [
                    -0.12398,
                    1.85408,
                    -0.03943
                ],
                [
                    0.12693,
                    0.071,
                    1.88597
                ]
            ],
            [
                [
                    1.90518,
                    -0.01357,
                    -0.09592
                ],
                [
                    0.12398,
                    1.85408,
                    0.03943
                ],
                [
                    0.12693,
                    -0.071,
                    1.88597
                ]
            ],
            [
                [
                    1.90518,
                    -0.01357,
                    0.09592
                ],
                [
                    0.12398,
                    1.85408,
                    -0.03943
                ],
                [
                    -0.12693,
                    0.071,
                    1.88597
                ]
            ],
            [
                [
                    3.14385,
                    0.0357,
                    -0.08741
                ],
                [
                    0.04568,
                    3.01758,
                    -0.05563
                ],
                [
                    0.02168,
                    -0.04864,
                    3.02578
                ]
            ],
            [
                [
                    3.14385,
                    0.0357,
                    0.08741
                ],
                [
                    0.04568,
                    3.01759,
                    0.05563
                ],
                [
                    -0.02168,
                    0.04864,
                    3.02578
                ]
            ],
            [
                [
                    3.14385,
                    -0.0357,
                    -0.08741
                ],
                [
                    -0.04568,
                    3.01759,
                    0.05563
                ],
                [
                    0.02168,
                    0.04864,
                    3.02578
                ]
            ],
            [
                [
                    3.14385,
                    -0.0357,
                    0.08741
                ],
                [
                    -0.04568,
                    3.01758,
                    -0.05563
                ],
                [
                    -0.02168,
                    -0.04864,
                    3.02578
                ]
            ],
            [
                [
                    -2.59934,
                    -0.0,
                    -0.0
                ],
                [
                    0.0,
                    -1.43758,
                    0.20377
                ],
                [
                    -0.0,
                    0.17512,
                    -1.42475
                ]
            ],
            [
                [
                    -2.59934,
                    0.0,
                    -0.0
                ],
                [
                    0.0,
                    -1.43758,
                    -0.20377
                ],
                [
                    -0.0,
                    -0.17512,
                    -1.42475
                ]
            ],
            [
                [
                    -1.71335,
                    0.09685,
                    -0.21808
                ],
                [
                    0.07562,
                    -1.57151,
                    0.22657
                ],
                [
                    -0.24421,
                    0.26946,
                    -2.07809
                ]
            ],
            [
                [
                    -1.71335,
                    0.09685,
                    0.21808
                ],
                [
                    0.07562,
                    -1.57151,
                    -0.22657
                ],
                [
                    0.24421,
                    -0.26946,
                    -2.07809
                ]
            ],
            [
                [
                    -1.71335,
                    -0.09685,
                    0.21808
                ],
                [
                    -0.07562,
                    -1.57151,
                    0.22657
                ],
                [
                    0.24421,
                    0.26946,
                    -2.07809
                ]
            ],
            [
                [
                    -1.71335,
                    -0.09685,
                    -0.21808
                ],
                [
                    -0.07562,
                    -1.57151,
                    -0.22657
                ],
                [
                    -0.24421,
                    -0.26946,
                    -2.07809
                ]
            ],
            [
                [
                    -1.73701,
                    -0.26608,
                    -0.14219
                ],
                [
                    -0.30796,
                    -2.15762,
                    0.18206
                ],
                [
                    -0.08842,
                    0.13156,
                    -1.54646
                ]
            ],
            [
                [
                    -1.73701,
                    -0.26608,
                    0.14219
                ],
                [
                    -0.30796,
                    -2.15762,
                    -0.18206
                ],
                [
                    0.08842,
                    -0.13156,
                    -1.54646
                ]
            ],
            [
                [
                    -1.73701,
                    0.26608,
                    -0.14219
                ],
                [
                    0.30796,
                    -2.15762,
                    -0.18206
                ],
                [
                    -0.08842,
                    -0.13156,
                    -1.54646
                ]
            ],
            [
                [
                    -1.73701,
                    0.26608,
                    0.14219
                ],
                [
                    0.30796,
                    -2.15762,
                    0.18206
                ],
                [
                    0.08842,
                    0.13156,
                    -1.54646
                ]
            ],
            [
                [
                    -1.6303,
                    0.42522,
                    -0.30297
                ],
                [
                    0.33353,
                    -1.83598,
                    -0.03079
                ],
                [
                    -0.28934,
                    0.03561,
                    -1.94268
                ]
            ],
            [
                [
                    -1.6303,
                    0.42522,
                    0.30297
                ],
                [
                    0.33353,
                    -1.83598,
                    0.03079
                ],
                [
                    0.28934,
                    -0.03561,
                    -1.94268
                ]
            ],
            [
                [
                    -1.6303,
                    -0.42522,
                    -0.30297
                ],
                [
                    -0.33353,
                    -1.83598,
                    0.03079
                ],
                [
                    -0.28934,
                    -0.03561,
                    -1.94268
                ]
            ],
            [
                [
                    -1.6303,
                    -0.42522,
                    0.30297
                ],
                [
                    -0.33353,
                    -1.83598,
                    -0.03079
                ],
                [
                    0.28934,
                    0.03561,
                    -1.94268
                ]
            ]
        ]
    },
    "band_gap": 5.6532,
    "is_direct": false,
    "formula": "BaBe2Si2O7"
}