{
    "mp_id": "mp-19212",
    "nelements": 3,
    "nsites": 14,
    "elements": [
        "Mo",
        "O",
        "Rb"
    ],
    "structure": {
        "@module": "pymatgen.core.structure",
        "@class": "Structure",
        "charge": null,
        "lattice": {
            "matrix": [
                [
                    6.3946881,
                    -3.11349992,
                    0.00442831
                ],
                [
                    6.3946881,
                    3.11349992,
                    0.00442831
                ],
                [
                    -3.40929285,
                    0.0,
                    7.05598878
                ]
            ],
            "a": 7.11237915595415,
            "b": 7.11237915595415,
            "c": 7.836469575041239,
            "alpha": 112.99145754330132,
            "beta": 112.99145754330132,
            "gamma": 51.921822867623185,
            "volume": 281.0615216133856
        },
        "sites": [
            {
                "species": [
                    {
                        "element": "Rb",
                        "occu": 1
                    }
                ],
                "abc": [
                    0.15641895,
                    0.15641895,
                    0.74713054
                ],
                "xyz": [
                    -0.546686011679649,
                    0.0,
                    5.273130050636291
                ],
                "label": "Rb",
                "properties": {}
            },
            {
                "species": [
                    {
                        "element": "Rb",
                        "occu": 1
                    }
                ],
                "abc": [
                    0.84358105,
                    0.84358105,
                    0.25286946
                ],
                "xyz": [
                    9.926769361679648,
                    0.0,
                    1.7917153493637097
                ],
                "label": "Rb",
                "properties": {}
            },
            {
                "species": [
                    {
                        "element": "Rb",
                        "occu": 1
                    }
                ],
                "abc": [
                    0.51319596,
                    0.51319596,
                    0.23871004
                ],
                "xyz": [
                    5.749623764164937,
                    0.0,
                    1.6888805455166063
                ],
                "label": "Rb",
                "properties": {}
            },
            {
                "species": [
                    {
                        "element": "Rb",
                        "occu": 1
                    }
                ],
                "abc": [
                    0.48680404,
                    0.48680404,
                    0.76128996
                ],
                "xyz": [
                    3.630459585835062,
                    0.0,
                    5.375964854483394
                ],
                "label": "Rb",
                "properties": {}
            },
            {
                "species": [
                    {
                        "element": "Mo",
                        "occu": 1
                    }
                ],
                "abc": [
                    0.82535964,
                    0.82535964,
                    0.77787577
                ],
                "xyz": [
                    7.903828635407322,
                    0.0,
                    5.495992602048677
                ],
                "label": "Mo",
                "properties": {}
            },
            {
                "species": [
                    {
                        "element": "Mo",
                        "occu": 1
                    }
                ],
                "abc": [
                    0.17464036,
                    0.17464036,
                    0.22212423
                ],
                "xyz": [
                    1.476254714592676,
                    0.0,
                    1.5688527979513225
                ],
                "label": "Mo",
                "properties": {}
            },
            {
                "species": [
                    {
                        "element": "O",
                        "occu": 1
                    }
                ],
                "abc": [
                    0.09312617,
                    0.62363742,
                    0.92364729
                ],
                "xyz": [
                    1.4344954977674025,
                    1.6517467344341001,
                    6.52041896629064
                ],
                "label": "O",
                "properties": {}
            },
            {
                "species": [
                    {
                        "element": "O",
                        "occu": 1
                    }
                ],
                "abc": [
                    0.37636258,
                    0.90687383,
                    0.07635271
                ],
                "xyz": [
                    7.945587852232598,
                    1.6517467344341004,
                    0.544426433709361
                ],
                "label": "O",
                "properties": {}
            },
            {
                "species": [
                    {
                        "element": "O",
                        "occu": 1
                    }
                ],
                "abc": [
                    0.90687383,
                    0.37636258,
                    0.07635271
                ],
                "xyz": [
                    7.945587852232598,
                    -1.6517467344341004,
                    0.544426433709361
                ],
                "label": "O",
                "properties": {}
            },
            {
                "species": [
                    {
                        "element": "O",
                        "occu": 1
                    }
                ],
                "abc": [
                    0.62363742,
                    0.09312617,
                    0.92364729
                ],
                "xyz": [
                    1.4344954977674025,
                    -1.6517467344341001,
                    6.52041896629064
                ],
                "label": "O",
                "properties": {}
            },
            {
                "species": [
                    {
                        "element": "O",
                        "occu": 1
                    }
                ],
                "abc": [
                    0.32774236,
                    0.32774236,
                    0.37289356
                ],
                "xyz": [
                    2.9203169907967856,
                    0.0,
                    2.63403546503468
                ],
                "label": "O",
                "properties": {}
            },
            {
                "species": [
                    {
                        "element": "O",
                        "occu": 1
                    }
                ],
                "abc": [
                    0.67225764,
                    0.67225764,
                    0.62710644
                ],
                "xyz": [
                    6.459766359203213,
                    0.0,
                    4.43080993496532
                ],
                "label": "O",
                "properties": {}
            },
            {
                "species": [
                    {
                        "element": "O",
                        "occu": 1
                    }
                ],
                "abc": [
                    0.90933017,
                    0.90933017,
                    0.64478588
                ],
                "xyz": [
                    9.431501743674996,
                    0.0,
                    4.557655526552652
                ],
                "label": "O",
                "properties": {}
            },
            {
                "species": [
                    {
                        "element": "O",
                        "occu": 1
                    }
                ],
                "abc": [
                    0.09066983,
                    0.09066983,
                    0.35521412
                ],
                "xyz": [
                    -0.05141839367499612,
                    0.0,
                    2.507189873447348
                ],
                "label": "O",
                "properties": {}
            }
        ]
    },
    "spacegroup": {
        "source": "spglib",
        "symbol": "C2/m",
        "number": 12,
        "point_group": "2/m",
        "crystal_system": "monoclinic",
        "hall": "-C 2y"
    },
    "dielectric": {
        "epsilon_ionic": [
            [
                3.47158581,
                -1.3e-07,
                -0.11074874
            ],
            [
                -1.3e-07,
                7.20973473,
                4.1e-07
            ],
            [
                -0.11074874,
                4.1e-07,
                2.81445678
            ]
        ],
        "epsilon_ionic_avg": 4.498592440000002,
        "epsilon_ionic_eig": [
            3.4897487440558344,
            2.7962938459441253,
            7.209734730000046
        ],
        "epsilon_electronic": [
            [
                2.76008277,
                0.0,
                -0.0017129
            ],
            [
                0.0,
                2.78825446,
                0.0
            ],
            [
                -0.00171321,
                0.0,
                2.73111091
            ]
        ],
        "epsilon_electronic_avg": 2.7598160466666664,
        "epsilon_electronic_eig": [
            2.760183708251064,
            2.731009971748936,
            2.78825446
        ]
    },
    "phonon": {
        "lowest_freq": -0.04479047554637644,
        "frequency": [
            -0.04479047554637644,
            -0.034168658387291946,
            -0.014823333491701321,
            1.1936404218778713,
            1.3130686214468406,
            1.6088289954135695,
            1.752238330980583,
            1.7718804418076413,
            2.0154771313440434,
            2.0842938940860507,
            2.147423151886572,
            2.1901798089444795,
            2.6926205712112545,
            2.822390539921747,
            2.975753511110649,
            3.135834059248224,
            3.1732513330154473,
            3.351473134851567,
            3.3973407216305986,
            3.482950246831992,
            3.5134103584216163,
            4.137074390347637,
            4.243538866057456,
            4.416838188518721,
            8.758126783135017,
            8.94596589587315,
            8.988965330672078,
            9.141892240920816,
            9.34972132121519,
            9.376765191126207,
            9.378010806161312,
            9.570459268676467,
            9.929302749828008,
            10.305568500704409,
            24.18399533245889,
            24.19423570867232,
            24.283492117847434,
            24.305457268676648,
            24.503446052585304,
            24.85582470426028,
            26.079810216907298,
            26.093587219016563
        ]
    },
    "born_effective_charge": {
        "avg_abs_trace": 1.6249604761904766,
        "tensors": [
            [
                [
                    1.34587,
                    0.0,
                    -0.13032
                ],
                [
                    -0.00011,
                    1.1806,
                    -1e-05
                ],
                [
                    -0.20183,
                    0.0,
                    1.28709
                ]
            ],
            [
                [
                    1.34596,
                    0.0,
                    -0.1302
                ],
                [
                    0.00011,
                    1.1806,
                    1e-05
                ],
                [
                    -0.20213,
                    0.0,
                    1.28725
                ]
            ],
            [
                [
                    1.30093,
                    0.0,
                    0.12447
                ],
                [
                    6e-05,
                    1.40105,
                    4e-05
                ],
                [
                    0.20331,
                    0.0,
                    1.33477
                ]
            ],
            [
                [
                    1.30103,
                    0.0,
                    0.12432
                ],
                [
                    -6e-05,
                    1.40105,
                    -4e-05
                ],
                [
                    0.20312,
                    0.0,
                    1.33523
                ]
            ],
            [
                [
                    3.07993,
                    0.0,
                    0.06186
                ],
                [
                    -0.00012,
                    3.1132,
                    -2e-05
                ],
                [
                    0.03288,
                    0.0,
                    3.01835
                ]
            ],
            [
                [
                    3.0797,
                    0.0,
                    0.06192
                ],
                [
                    0.00012,
                    3.1132,
                    2e-05
                ],
                [
                    0.0332,
                    0.0,
                    3.01835
                ]
            ],
            [
                [
                    -0.77899,
                    -0.0424,
                    0.00504
                ],
                [
                    -0.10364,
                    -2.11517,
                    0.86952
                ],
                [
                    0.0277,
                    0.83058,
                    -1.36518
                ]
            ],
            [
                [
                    -0.77886,
                    0.04266,
                    0.00518
                ],
                [
                    0.10364,
                    -2.11517,
                    -0.86952
                ],
                [
                    0.0275,
                    -0.83106,
                    -1.36539
                ]
            ],
            [
                [
                    -0.77886,
                    -0.04266,
                    0.00518
                ],
                [
                    -0.10347,
                    -2.11425,
                    0.86922
                ],
                [
                    0.0275,
                    0.83106,
                    -1.36539
                ]
            ],
            [
                [
                    -0.77899,
                    0.0424,
                    0.00504
                ],
                [
                    0.10347,
                    -2.11425,
                    -0.86922
                ],
                [
                    0.0277,
                    -0.83058,
                    -1.36518
                ]
            ],
            [
                [
                    -2.00197,
                    0.0,
                    -0.8782
                ],
                [
                    -0.00076,
                    -0.74946,
                    -0.00072
                ],
                [
                    -0.92402,
                    0.0,
                    -1.5169
                ]
            ],
            [
                [
                    -2.00217,
                    0.0,
                    -0.87815
                ],
                [
                    0.00076,
                    -0.74946,
                    0.00072
                ],
                [
                    -0.92307,
                    0.0,
                    -1.51657
                ]
            ],
            [
                [
                    -2.16675,
                    0.0,
                    0.81182
                ],
                [
                    5e-05,
                    -0.71598,
                    7e-05
                ],
                [
                    0.83423,
                    0.0,
                    -1.39324
                ]
            ],
            [
                [
                    -2.16684,
                    0.0,
                    0.81204
                ],
                [
                    -5e-05,
                    -0.71598,
                    -7e-05
                ],
                [
                    0.83391,
                    0.0,
                    -1.39318
                ]
            ]
        ]
    },
    "band_gap": 4.3128,
    "is_direct": false,
    "formula": "Rb2MoO4"
}