{
    "mp_id": "mp-1209180",
    "nelements": 4,
    "nsites": 12,
    "elements": [
        "Mo",
        "O",
        "Rb",
        "Sc"
    ],
    "structure": {
        "@module": "pymatgen.core.structure",
        "@class": "Structure",
        "charge": null,
        "lattice": {
            "matrix": [
                [
                    5.82216263,
                    0.0,
                    0.0
                ],
                [
                    -2.91108132,
                    5.04214138,
                    0.0
                ],
                [
                    0.0,
                    0.0,
                    7.52902743
                ]
            ],
            "a": 5.82216263,
            "b": 5.8221631845527355,
            "c": 7.52902743,
            "alpha": 90.0,
            "beta": 90.0,
            "gamma": 119.99999690601953,
            "volume": 221.02338746967536
        },
        "sites": [
            {
                "species": [
                    {
                        "element": "Rb",
                        "occu": 1
                    }
                ],
                "abc": [
                    0.0,
                    0.0,
                    0.0
                ],
                "xyz": [
                    0.0,
                    0.0,
                    0.0
                ],
                "label": "Rb",
                "properties": {}
            },
            {
                "species": [
                    {
                        "element": "Sc",
                        "occu": 1
                    }
                ],
                "abc": [
                    0.0,
                    0.0,
                    0.5
                ],
                "xyz": [
                    0.0,
                    0.0,
                    3.764513715
                ],
                "label": "Sc",
                "properties": {}
            },
            {
                "species": [
                    {
                        "element": "Mo",
                        "occu": 1
                    }
                ],
                "abc": [
                    0.333333,
                    0.666667,
                    0.25961771
                ],
                "xyz": [
                    -2.91441465005704e-06,
                    3.36142926738046,
                    1.9546688599037854
                ],
                "label": "Mo",
                "properties": {}
            },
            {
                "species": [
                    {
                        "element": "Mo",
                        "occu": 1
                    }
                ],
                "abc": [
                    0.666667,
                    0.333333,
                    0.74038229
                ],
                "xyz": [
                    2.91108422441465,
                    1.6807121126195401,
                    5.574358570096215
                ],
                "label": "Mo",
                "properties": {}
            },
            {
                "species": [
                    {
                        "element": "O",
                        "occu": 1
                    }
                ],
                "abc": [
                    0.16380472,
                    0.83619528,
                    0.3339546
                ],
                "xyz": [
                    -1.4805347400785562,
                    4.216214823048687,
                    2.514353343774678
                ],
                "label": "O",
                "properties": {}
            },
            {
                "species": [
                    {
                        "element": "O",
                        "occu": 1
                    }
                ],
                "abc": [
                    0.83619528,
                    0.16380472,
                    0.6660454
                ],
                "xyz": [
                    4.391616050078556,
                    0.8259265569513136,
                    5.014674086225322
                ],
                "label": "O",
                "properties": {}
            },
            {
                "species": [
                    {
                        "element": "O",
                        "occu": 1
                    }
                ],
                "abc": [
                    0.16380472,
                    0.32760844,
                    0.3339546
                ],
                "xyz": [
                    2.909443272636203e-06,
                    1.6518480717612474,
                    2.514353343774678
                ],
                "label": "O",
                "properties": {}
            },
            {
                "species": [
                    {
                        "element": "O",
                        "occu": 1
                    }
                ],
                "abc": [
                    0.83619528,
                    0.67239156,
                    0.6660454
                ],
                "xyz": [
                    2.911078400556727,
                    3.390293308238753,
                    5.014674086225322
                ],
                "label": "O",
                "properties": {}
            },
            {
                "species": [
                    {
                        "element": "O",
                        "occu": 1
                    }
                ],
                "abc": [
                    0.67239156,
                    0.83619528,
                    0.3339546
                ],
                "xyz": [
                    1.4805405538792331,
                    4.216214823048687,
                    2.514353343774678
                ],
                "label": "O",
                "properties": {}
            },
            {
                "species": [
                    {
                        "element": "O",
                        "occu": 1
                    }
                ],
                "abc": [
                    0.32760844,
                    0.16380472,
                    0.6660454
                ],
                "xyz": [
                    1.4305407561207668,
                    0.8259265569513136,
                    5.014674086225322
                ],
                "label": "O",
                "properties": {}
            },
            {
                "species": [
                    {
                        "element": "O",
                        "occu": 1
                    }
                ],
                "abc": [
                    0.333333,
                    0.666667,
                    0.02843978
                ],
                "xyz": [
                    -2.91441465005704e-06,
                    3.36142926738046,
                    0.2141238837231654
                ],
                "label": "O",
                "properties": {}
            },
            {
                "species": [
                    {
                        "element": "O",
                        "occu": 1
                    }
                ],
                "abc": [
                    0.666667,
                    0.333333,
                    0.97156022
                ],
                "xyz": [
                    2.91108422441465,
                    1.6807121126195401,
                    7.314903546276835
                ],
                "label": "O",
                "properties": {}
            }
        ]
    },
    "spacegroup": {
        "source": "spglib",
        "symbol": "P-3m1",
        "number": 164,
        "point_group": "-3m",
        "crystal_system": "trigonal",
        "hall": "-P 3 2\""
    },
    "dielectric": {
        "epsilon_ionic": [
            [
                6.60851415,
                -4.2e-07,
                -1e-08
            ],
            [
                -4.2e-07,
                6.60798818,
                0.00017927
            ],
            [
                -1e-08,
                0.00017927,
                2.73161335
            ]
        ],
        "epsilon_ionic_avg": 5.316038560000001,
        "epsilon_ionic_eig": [
            6.608514150335387,
            6.607988187955284,
            2.7316133417093327
        ],
        "epsilon_electronic": [
            [
                3.4244026,
                3.4e-07,
                -0.0
            ],
            [
                3.4e-07,
                3.42440251,
                0.0
            ],
            [
                0.0,
                0.0,
                3.05429012
            ]
        ],
        "epsilon_electronic_avg": 3.301031743333334,
        "epsilon_electronic_eig": [
            3.4244028979650127,
            3.4244022120349875,
            3.05429012
        ]
    },
    "phonon": {
        "lowest_freq": -0.11694992853642285,
        "frequency": [
            -0.11694992853642285,
            -0.11694991683362985,
            -0.012465358520832255,
            1.2960774178007368,
            1.2960775431991716,
            1.84993657658895,
            1.8499367020960187,
            2.023774703388109,
            3.0490396798856043,
            3.429165645388788,
            3.445832994672408,
            3.445833218090197,
            4.271714970364697,
            4.2717153479743475,
            4.468626896764421,
            7.580846637796067,
            7.580847298698829,
            8.09279043036479,
            8.639612704532395,
            8.639613015703912,
            9.548009600047354,
            9.548009843218583,
            10.067015740354199,
            10.067016335148445,
            10.165215477564491,
            10.47916445809242,
            10.479165087799434,
            11.397743260731339,
            23.208616183371404,
            23.208617447040673,
            23.328640003365532,
            23.32864131291532,
            25.881554849705832,
            27.758588893244056,
            28.334091759417955,
            28.91159421651588
        ]
    },
    "born_effective_charge": {
        "avg_abs_trace": 2.470495,
        "tensors": [
            [
                [
                    1.25284,
                    0.0,
                    0.0
                ],
                [
                    -0.0,
                    1.25266,
                    -0.00011
                ],
                [
                    -0.0,
                    -0.0,
                    1.304
                ]
            ],
            [
                [
                    6.07767,
                    0.0,
                    0.0
                ],
                [
                    0.0,
                    6.07776,
                    0.00056
                ],
                [
                    -0.0,
                    -0.0,
                    4.81512
                ]
            ],
            [
                [
                    4.21747,
                    -0.00041,
                    0.00011
                ],
                [
                    0.0,
                    4.21715,
                    0.00069
                ],
                [
                    -0.0,
                    -0.0,
                    3.41033
                ]
            ],
            [
                [
                    4.21747,
                    0.00041,
                    -0.00011
                ],
                [
                    0.0,
                    4.21626,
                    0.00045
                ],
                [
                    -0.0,
                    -0.0,
                    3.41017
                ]
            ],
            [
                [
                    -3.29019,
                    1.47728,
                    1.32282
                ],
                [
                    1.47606,
                    -1.58557,
                    -0.76372
                ],
                [
                    0.99219,
                    -0.57284,
                    -1.35404
                ]
            ],
            [
                [
                    -3.29077,
                    1.47627,
                    1.32269
                ],
                [
                    1.47595,
                    -1.58526,
                    -0.76348
                ],
                [
                    0.9925,
                    -0.57302,
                    -1.35434
                ]
            ],
            [
                [
                    -0.73317,
                    0.00015,
                    -0.00017
                ],
                [
                    -0.0,
                    -4.14215,
                    1.52687
                ],
                [
                    0.0,
                    1.14569,
                    -1.35404
                ]
            ],
            [
                [
                    -0.73317,
                    -0.00015,
                    0.00017
                ],
                [
                    -0.0,
                    -4.1416,
                    1.52663
                ],
                [
                    0.0,
                    1.14604,
                    -1.35434
                ]
            ],
            [
                [
                    -3.29077,
                    -1.47627,
                    -1.32269
                ],
                [
                    -1.47606,
                    -1.58557,
                    -0.76372
                ],
                [
                    -0.99219,
                    -0.57284,
                    -1.35404
                ]
            ],
            [
                [
                    -3.29019,
                    -1.47728,
                    -1.32282
                ],
                [
                    -1.47595,
                    -1.58526,
                    -0.76348
                ],
                [
                    -0.9925,
                    -0.57302,
                    -1.35434
                ]
            ],
            [
                [
                    -0.5686,
                    -6e-05,
                    -0.00013
                ],
                [
                    -0.0,
                    -0.5693,
                    -0.00045
                ],
                [
                    -0.0,
                    -0.0,
                    -2.40682
                ]
            ],
            [
                [
                    -0.5686,
                    6e-05,
                    0.00013
                ],
                [
                    -0.0,
                    -0.56911,
                    -0.00025
                ],
                [
                    -0.0,
                    -0.0,
                    -2.40768
                ]
            ]
        ]
    },
    "band_gap": 3.4904,
    "is_direct": false,
    "formula": "RbSc(MoO4)2"
}