{
    "mp_id": "mp-17161",
    "nelements": 3,
    "nsites": 22,
    "elements": [
        "Cd",
        "K",
        "O"
    ],
    "structure": {
        "@module": "pymatgen.core.structure",
        "@class": "Structure",
        "charge": null,
        "lattice": {
            "matrix": [
                [
                    8.718903,
                    0.0,
                    0.0
                ],
                [
                    -4.359451,
                    7.550791,
                    0.0
                ],
                [
                    0.0,
                    0.0,
                    6.66671
                ]
            ],
            "a": 8.718903,
            "b": 8.718902324666908,
            "c": 6.66671,
            "alpha": 90.0,
            "beta": 90.0,
            "gamma": 119.99999876820563,
            "volume": 438.9002815151064
        },
        "sites": [
            {
                "species": [
                    {
                        "element": "K",
                        "occu": 1
                    }
                ],
                "abc": [
                    0.53709,
                    0.07418,
                    0.140129
                ],
                "xyz": [
                    4.359451537089999,
                    0.56011767638,
                    0.93419940559
                ],
                "label": "K",
                "properties": {}
            },
            {
                "species": [
                    {
                        "element": "K",
                        "occu": 1
                    }
                ],
                "abc": [
                    0.46291,
                    0.53709,
                    0.640129
                ],
                "xyz": [
                    1.6946498501399994,
                    4.05545433819,
                    4.267554405589999
                ],
                "label": "K",
                "properties": {}
            },
            {
                "species": [
                    {
                        "element": "K",
                        "occu": 1
                    }
                ],
                "abc": [
                    0.92582,
                    0.46291,
                    0.140129
                ],
                "xyz": [
                    6.0541013130499985,
                    3.49533666181,
                    0.93419940559
                ],
                "label": "K",
                "properties": {}
            },
            {
                "species": [
                    {
                        "element": "K",
                        "occu": 1
                    }
                ],
                "abc": [
                    0.53709,
                    0.46291,
                    0.140129
                ],
                "xyz": [
                    2.664802149859999,
                    3.49533666181,
                    0.93419940559
                ],
                "label": "K",
                "properties": {}
            },
            {
                "species": [
                    {
                        "element": "K",
                        "occu": 1
                    }
                ],
                "abc": [
                    0.143917,
                    0.856083,
                    0.973432
                ],
                "xyz": [
                    -2.4772535273820004,
                    6.4641038116530005,
                    6.4895888487199995
                ],
                "label": "K",
                "properties": {}
            },
            {
                "species": [
                    {
                        "element": "K",
                        "occu": 1
                    }
                ],
                "abc": [
                    0.287833,
                    0.143917,
                    0.473432
                ],
                "xyz": [
                    1.882188897632,
                    1.086687188347,
                    3.1562338487200003
                ],
                "label": "K",
                "properties": {}
            },
            {
                "species": [
                    {
                        "element": "K",
                        "occu": 1
                    }
                ],
                "abc": [
                    0.07418,
                    0.53709,
                    0.640129
                ],
                "xyz": [
                    -1.69464931305,
                    4.05545433819,
                    4.267554405589999
                ],
                "label": "K",
                "properties": {}
            },
            {
                "species": [
                    {
                        "element": "K",
                        "occu": 1
                    }
                ],
                "abc": [
                    0.856083,
                    0.712167,
                    0.473432
                ],
                "xyz": [
                    4.359447496632001,
                    5.377424174097,
                    3.1562338487200003
                ],
                "label": "K",
                "properties": {}
            },
            {
                "species": [
                    {
                        "element": "K",
                        "occu": 1
                    }
                ],
                "abc": [
                    0.856083,
                    0.143917,
                    0.473432
                ],
                "xyz": [
                    6.836705527382,
                    1.086687188347,
                    3.1562338487200003
                ],
                "label": "K",
                "properties": {}
            },
            {
                "species": [
                    {
                        "element": "K",
                        "occu": 1
                    }
                ],
                "abc": [
                    0.712167,
                    0.856083,
                    0.973432
                ],
                "xyz": [
                    2.4772631023679996,
                    6.4641038116530005,
                    6.4895888487199995
                ],
                "label": "K",
                "properties": {}
            },
            {
                "species": [
                    {
                        "element": "K",
                        "occu": 1
                    }
                ],
                "abc": [
                    0.143917,
                    0.287833,
                    0.973432
                ],
                "xyz": [
                    4.503367999841856e-06,
                    2.173366825903,
                    6.4895888487199995
                ],
                "label": "K",
                "properties": {}
            },
            {
                "species": [
                    {
                        "element": "K",
                        "occu": 1
                    }
                ],
                "abc": [
                    0.46291,
                    0.92582,
                    0.640129
                ],
                "xyz": [
                    4.6290999922149467e-07,
                    6.99067332362,
                    4.267554405589999
                ],
                "label": "K",
                "properties": {}
            },
            {
                "species": [
                    {
                        "element": "Cd",
                        "occu": 1
                    }
                ],
                "abc": [
                    0.666667,
                    0.333333,
                    0.749834
                ],
                "xyz": [
                    4.359456026118,
                    2.5169278164030002,
                    4.99892582614
                ],
                "label": "Cd",
                "properties": {}
            },
            {
                "species": [
                    {
                        "element": "Cd",
                        "occu": 1
                    }
                ],
                "abc": [
                    0.333333,
                    0.666667,
                    0.249834
                ],
                "xyz": [
                    -4.026118000322043e-06,
                    5.033863183597,
                    1.66557082614
                ],
                "label": "Cd",
                "properties": {}
            },
            {
                "species": [
                    {
                        "element": "O",
                        "occu": 1
                    }
                ],
                "abc": [
                    0.192412,
                    0.807588,
                    0.361205
                ],
                "xyz": [
                    -1.843018750152,
                    6.097928202108,
                    2.4080489855500002
                ],
                "label": "O",
                "properties": {}
            },
            {
                "species": [
                    {
                        "element": "O",
                        "occu": 1
                    }
                ],
                "abc": [
                    0.384823,
                    0.192412,
                    0.861205
                ],
                "xyz": [
                    2.5164237233569997,
                    1.4528627978920001,
                    5.74140398555
                ],
                "label": "O",
                "properties": {}
            },
            {
                "species": [
                    {
                        "element": "O",
                        "occu": 1
                    }
                ],
                "abc": [
                    0.807588,
                    0.615177,
                    0.861205
                ],
                "xyz": [
                    4.359447448136999,
                    4.645072955007,
                    5.74140398555
                ],
                "label": "O",
                "properties": {}
            },
            {
                "species": [
                    {
                        "element": "O",
                        "occu": 1
                    }
                ],
                "abc": [
                    0.192412,
                    0.384823,
                    0.361205
                ],
                "xyz": [
                    4.551862999857548e-06,
                    2.9057180449930002,
                    2.4080489855500002
                ],
                "label": "O",
                "properties": {}
            },
            {
                "species": [
                    {
                        "element": "O",
                        "occu": 1
                    }
                ],
                "abc": [
                    0.615177,
                    0.807588,
                    0.361205
                ],
                "xyz": [
                    1.843028276642999,
                    6.097928202108,
                    2.4080489855500002
                ],
                "label": "O",
                "properties": {}
            },
            {
                "species": [
                    {
                        "element": "O",
                        "occu": 1
                    }
                ],
                "abc": [
                    0.807588,
                    0.192412,
                    0.861205
                ],
                "xyz": [
                    6.202470750151999,
                    1.4528627978920001,
                    5.74140398555
                ],
                "label": "O",
                "properties": {}
            },
            {
                "species": [
                    {
                        "element": "O",
                        "occu": 1
                    }
                ],
                "abc": [
                    0.666667,
                    0.333333,
                    0.418266
                ],
                "xyz": [
                    4.359456026118,
                    2.5169278164030002,
                    2.7884581248600004
                ],
                "label": "O",
                "properties": {}
            },
            {
                "species": [
                    {
                        "element": "O",
                        "occu": 1
                    }
                ],
                "abc": [
                    0.333333,
                    0.666667,
                    0.918266
                ],
                "xyz": [
                    -4.026118000322043e-06,
                    5.033863183597,
                    6.12181312486
                ],
                "label": "O",
                "properties": {}
            }
        ]
    },
    "spacegroup": {
        "source": "spglib",
        "symbol": "P6_3mc",
        "number": 186,
        "point_group": "6mm",
        "crystal_system": "hexagonal",
        "hall": "P 6c -2c"
    },
    "dielectric": {
        "epsilon_ionic": [
            [
                6.63734858,
                2.9e-07,
                -7.656e-05
            ],
            [
                2.9e-07,
                6.63710272,
                5.691e-05
            ],
            [
                -7.656e-05,
                5.691e-05,
                5.65710256
            ]
        ],
        "epsilon_ionic_avg": 6.310517953333336,
        "epsilon_ionic_eig": [
            5.6571025507156,
            6.637348586311214,
            6.637102722973193
        ],
        "epsilon_electronic": [
            [
                3.4965329,
                2.3e-07,
                0.0
            ],
            [
                2.3e-07,
                3.49653245,
                0.0
            ],
            [
                -0.0,
                0.0,
                3.52376912
            ]
        ],
        "epsilon_electronic_avg": 3.5056114899999997,
        "epsilon_electronic_eig": [
            3.496532996753011,
            3.496532353246989,
            3.52376912
        ]
    },
    "phonon": {
        "lowest_freq": -0.04910167709470192,
        "frequency": [
            -0.04910167709470192,
            -0.03288632898091873,
            -0.03288632593393655,
            2.264778423072883,
            2.444897952639751,
            2.444898002621414,
            2.525764691702663,
            2.5835000517740614,
            2.5835001842146146,
            2.6165882643015563,
            2.6165883717162948,
            2.7240663312525815,
            2.7240665151762427,
            2.7526249517669004,
            2.924425682194198,
            2.924425736516003,
            3.140023338581902,
            3.1400236071087013,
            3.185471484070921,
            3.2228643577421963,
            3.4616873004913087,
            3.504264780257325,
            3.5042648639496754,
            3.629341958982273,
            3.6293419926523063,
            4.049546452459816,
            4.43569855052157,
            4.559328580501024,
            4.618514558941272,
            4.618514797069906,
            4.6495181041810225,
            4.649518277644251,
            4.772084392601529,
            5.010495509262941,
            5.01049565559585,
            5.169424024931517,
            5.169424190404583,
            5.509215439890364,
            5.509215861329893,
            5.539340818482655,
            5.664491784980206,
            5.703888957698194,
            5.7038892362100695,
            5.707244788542317,
            5.707244938422071,
            5.767392783214738,
            5.900036591385442,
            6.028521753750846,
            6.214371105058038,
            6.214371459011976,
            6.693093803026696,
            6.693093839541966,
            6.860522781070388,
            7.302511271512695,
            7.302511422118498,
            7.769426562520712,
            8.359165114362677,
            8.359165801441204,
            9.742198047716325,
            9.742198248410359,
            10.079856866724674,
            10.079857169804534,
            10.950647012324598,
            11.242859730970794,
            12.43761841777637,
            12.790619745262115
        ]
    },
    "born_effective_charge": {
        "avg_abs_trace": 1.4835610606060605,
        "tensors": [
            [
                [
                    0.79485,
                    2e-05,
                    -1e-05
                ],
                [
                    0.0,
                    1.1941,
                    -0.08522
                ],
                [
                    -0.0,
                    -0.0505,
                    1.19228
                ]
            ],
            [
                [
                    1.0943,
                    -0.17294,
                    0.07379
                ],
                [
                    -0.1728,
                    0.89462,
                    -0.04262
                ],
                [
                    0.04373,
                    -0.02525,
                    1.19228
                ]
            ],
            [
                [
                    1.0943,
                    0.17294,
                    0.07379
                ],
                [
                    0.17287,
                    0.89461,
                    0.04265
                ],
                [
                    0.04373,
                    0.02525,
                    1.19228
                ]
            ],
            [
                [
                    1.0943,
                    -0.17298,
                    -0.07382
                ],
                [
                    -0.17287,
                    0.89461,
                    0.04265
                ],
                [
                    -0.04373,
                    0.02525,
                    1.19228
                ]
            ],
            [
                [
                    1.05597,
                    0.08916,
                    0.04774
                ],
                [
                    0.08914,
                    1.15901,
                    -0.02766
                ],
                [
                    0.09203,
                    -0.05313,
                    1.0391
                ]
            ],
            [
                [
                    1.05597,
                    -0.08916,
                    0.04774
                ],
                [
                    -0.08914,
                    1.15899,
                    0.02765
                ],
                [
                    0.09203,
                    0.05313,
                    1.0391
                ]
            ],
            [
                [
                    1.0943,
                    0.17298,
                    -0.07382
                ],
                [
                    0.1728,
                    0.89462,
                    -0.04262
                ],
                [
                    -0.04373,
                    -0.02525,
                    1.19228
                ]
            ],
            [
                [
                    1.21047,
                    2e-05,
                    -4e-05
                ],
                [
                    0.0,
                    1.00449,
                    -0.05508
                ],
                [
                    -0.0,
                    -0.10626,
                    1.0391
                ]
            ],
            [
                [
                    1.05599,
                    0.0892,
                    -0.0478
                ],
                [
                    0.08914,
                    1.15899,
                    0.02765
                ],
                [
                    -0.09203,
                    0.05313,
                    1.0391
                ]
            ],
            [
                [
                    1.05599,
                    -0.0892,
                    -0.0478
                ],
                [
                    -0.08914,
                    1.15901,
                    -0.02766
                ],
                [
                    -0.09203,
                    -0.05313,
                    1.0391
                ]
            ],
            [
                [
                    1.21047,
                    -2e-05,
                    -4e-05
                ],
                [
                    0.0,
                    1.00446,
                    0.05535
                ],
                [
                    0.0,
                    0.10626,
                    1.0391
                ]
            ],
            [
                [
                    0.79485,
                    -2e-05,
                    -1e-05
                ],
                [
                    0.0,
                    1.1941,
                    0.08529
                ],
                [
                    0.0,
                    0.0505,
                    1.19228
                ]
            ],
            [
                [
                    1.71736,
                    0.00063,
                    8e-05
                ],
                [
                    -0.0,
                    1.71736,
                    -0.00014
                ],
                [
                    -0.0,
                    -0.0,
                    1.73824
                ]
            ],
            [
                [
                    1.71736,
                    -0.00063,
                    8e-05
                ],
                [
                    -0.0,
                    1.71732,
                    -0.00023
                ],
                [
                    -0.0,
                    -0.0,
                    1.73824
                ]
            ],
            [
                [
                    -2.18444,
                    0.13589,
                    0.2074
                ],
                [
                    0.13591,
                    -2.0275,
                    -0.11971
                ],
                [
                    0.13994,
                    -0.08079,
                    -1.95026
                ]
            ],
            [
                [
                    -2.18444,
                    -0.13589,
                    0.2074
                ],
                [
                    -0.13597,
                    -2.02744,
                    0.11976
                ],
                [
                    0.13994,
                    0.08079,
                    -1.95026
                ]
            ],
            [
                [
                    -1.94899,
                    8e-05,
                    -0.0
                ],
                [
                    -0.0,
                    -2.26291,
                    -0.23937
                ],
                [
                    -0.0,
                    -0.16158,
                    -1.95026
                ]
            ],
            [
                [
                    -1.94899,
                    -8e-05,
                    -0.0
                ],
                [
                    -0.0,
                    -2.26286,
                    0.23944
                ],
                [
                    0.0,
                    0.16158,
                    -1.95026
                ]
            ],
            [
                [
                    -2.18443,
                    -0.13592,
                    -0.20732
                ],
                [
                    -0.13591,
                    -2.0275,
                    -0.11971
                ],
                [
                    -0.13994,
                    -0.08079,
                    -1.95026
                ]
            ],
            [
                [
                    -2.18443,
                    0.13592,
                    -0.20732
                ],
                [
                    0.13597,
                    -2.02744,
                    0.11976
                ],
                [
                    -0.13994,
                    0.08079,
                    -1.95026
                ]
            ],
            [
                [
                    -1.70538,
                    -7e-05,
                    -1e-05
                ],
                [
                    -0.0,
                    -1.70521,
                    -0.00027
                ],
                [
                    -0.0,
                    -0.0,
                    -2.58159
                ]
            ],
            [
                [
                    -1.70538,
                    7e-05,
                    -1e-05
                ],
                [
                    -0.0,
                    -1.70542,
                    6e-05
                ],
                [
                    -0.0,
                    -0.0,
                    -2.58159
                ]
            ]
        ]
    },
    "band_gap": 1.625,
    "is_direct": false,
    "formula": "K6CdO4"
}