{
    "mp_id": "mp-1224",
    "nelements": 2,
    "nsites": 8,
    "elements": [
        "Hg",
        "O"
    ],
    "structure": {
        "@module": "pymatgen.core.structure",
        "@class": "Structure",
        "charge": null,
        "lattice": {
            "matrix": [
                [
                    6.66355011,
                    0.0,
                    0.0
                ],
                [
                    0.0,
                    5.50522065,
                    0.0
                ],
                [
                    0.0,
                    0.0,
                    3.55965626
                ]
            ],
            "a": 6.66355011,
            "b": 5.50522065,
            "c": 3.55965626,
            "alpha": 90.0,
            "beta": 90.0,
            "gamma": 90.0,
            "volume": 130.5835467916789
        },
        "sites": [
            {
                "species": [
                    {
                        "element": "Hg",
                        "occu": 1
                    }
                ],
                "abc": [
                    0.61658393,
                    0.75,
                    0.74611861
                ],
                "xyz": [
                    4.108637914575732,
                    4.1289154875000005,
                    2.6559257807889987
                ],
                "label": "Hg",
                "properties": {}
            },
            {
                "species": [
                    {
                        "element": "Hg",
                        "occu": 1
                    }
                ],
                "abc": [
                    0.88341607,
                    0.25,
                    0.24611861
                ],
                "xyz": [
                    5.886687250424267,
                    1.3763051625,
                    0.8760976507889986
                ],
                "label": "Hg",
                "properties": {}
            },
            {
                "species": [
                    {
                        "element": "Hg",
                        "occu": 1
                    }
                ],
                "abc": [
                    0.38341607,
                    0.25,
                    0.25388139
                ],
                "xyz": [
                    2.5549121954242677,
                    1.3763051625,
                    0.9037304792110014
                ],
                "label": "Hg",
                "properties": {}
            },
            {
                "species": [
                    {
                        "element": "Hg",
                        "occu": 1
                    }
                ],
                "abc": [
                    0.11658393,
                    0.75,
                    0.75388139
                ],
                "xyz": [
                    0.7768628595757323,
                    4.1289154875000005,
                    2.6835586092110013
                ],
                "label": "Hg",
                "properties": {}
            },
            {
                "species": [
                    {
                        "element": "O",
                        "occu": 1
                    }
                ],
                "abc": [
                    0.86460355,
                    0.75,
                    0.08709411
                ],
                "xyz": [
                    5.76132908070889,
                    4.1289154875000005,
                    0.3100250938706286
                ],
                "label": "O",
                "properties": {}
            },
            {
                "species": [
                    {
                        "element": "O",
                        "occu": 1
                    }
                ],
                "abc": [
                    0.63539645,
                    0.25,
                    0.58709411
                ],
                "xyz": [
                    4.2339960842911095,
                    1.3763051625,
                    2.089853223870629
                ],
                "label": "O",
                "properties": {}
            },
            {
                "species": [
                    {
                        "element": "O",
                        "occu": 1
                    }
                ],
                "abc": [
                    0.13539645,
                    0.25,
                    0.91290589
                ],
                "xyz": [
                    0.9022210292911095,
                    1.3763051625,
                    3.2496311661293715
                ],
                "label": "O",
                "properties": {}
            },
            {
                "species": [
                    {
                        "element": "O",
                        "occu": 1
                    }
                ],
                "abc": [
                    0.36460355,
                    0.75,
                    0.41290589
                ],
                "xyz": [
                    2.4295540257088906,
                    4.1289154875000005,
                    1.4698030361293715
                ],
                "label": "O",
                "properties": {}
            }
        ]
    },
    "spacegroup": {
        "source": "spglib",
        "symbol": "Pnma",
        "number": 62,
        "point_group": "mmm",
        "crystal_system": "orthorhombic",
        "hall": "-P 2ac 2n"
    },
    "dielectric": {
        "epsilon_ionic": [
            [
                3.71024187,
                5.8e-07,
                5.9e-07
            ],
            [
                5.8e-07,
                12.98321094,
                2.5e-07
            ],
            [
                5.9e-07,
                2.5e-07,
                1.93176777
            ]
        ],
        "epsilon_ionic_avg": 6.208406860000001,
        "epsilon_ionic_eig": [
            3.710241870000161,
            1.9317677699997997,
            12.983210940000045
        ],
        "epsilon_electronic": [
            [
                7.55159759,
                0.0,
                0.0
            ],
            [
                0.0,
                5.54463819,
                0.0
            ],
            [
                0.0,
                0.0,
                5.95753649
            ]
        ],
        "epsilon_electronic_avg": 6.351257423333333,
        "epsilon_electronic_eig": [
            7.55159759,
            5.54463819,
            5.95753649
        ]
    },
    "phonon": {
        "lowest_freq": -0.006674655727359659,
        "frequency": [
            -0.006674655727359659,
            -0.004769234950481197,
            -0.004162183484015062,
            1.0538806405557992,
            1.276768149790061,
            1.6771719689900486,
            1.7559285416892982,
            1.7766490114143885,
            1.9345743862581042,
            2.184556255599495,
            3.055874400729557,
            3.7839154803905832,
            4.1017906562367346,
            4.210644016688636,
            4.290654868423121,
            7.320518041434199,
            10.39855543013407,
            11.53070321179396,
            14.094519674404502,
            14.168804408148707,
            16.18349100980501,
            16.560127391661528,
            16.90273906339143,
            17.204334282167252
        ]
    },
    "born_effective_charge": {
        "avg_abs_trace": 1.94343,
        "tensors": [
            [
                [
                    2.56704,
                    -0.0,
                    0.89932
                ],
                [
                    1e-05,
                    1.61438,
                    0.00024
                ],
                [
                    0.36086,
                    -0.0,
                    1.6489
                ]
            ],
            [
                [
                    2.56697,
                    -0.0,
                    -0.89936
                ],
                [
                    -1e-05,
                    1.61438,
                    0.00024
                ],
                [
                    -0.36086,
                    -0.0,
                    1.6489
                ]
            ],
            [
                [
                    2.56697,
                    -0.0,
                    0.89936
                ],
                [
                    -1e-05,
                    1.61438,
                    -0.00024
                ],
                [
                    0.36078,
                    -0.0,
                    1.6489
                ]
            ],
            [
                [
                    2.56704,
                    -0.0,
                    -0.89932
                ],
                [
                    1e-05,
                    1.61438,
                    -0.00024
                ],
                [
                    -0.36078,
                    -0.0,
                    1.6489
                ]
            ],
            [
                [
                    -2.56702,
                    0.0,
                    0.02735
                ],
                [
                    -0.00016,
                    -1.61438,
                    0.00068
                ],
                [
                    -0.13597,
                    0.0,
                    -1.64831
                ]
            ],
            [
                [
                    -2.567,
                    -0.0,
                    -0.02491
                ],
                [
                    0.00016,
                    -1.61438,
                    0.00068
                ],
                [
                    0.13597,
                    0.0,
                    -1.64831
                ]
            ],
            [
                [
                    -2.567,
                    -0.0,
                    0.02491
                ],
                [
                    0.00016,
                    -1.61438,
                    -0.00068
                ],
                [
                    -0.13603,
                    -0.0,
                    -1.6495
                ]
            ],
            [
                [
                    -2.56702,
                    -0.0,
                    -0.02735
                ],
                [
                    -0.00016,
                    -1.61438,
                    -0.00068
                ],
                [
                    0.13603,
                    -0.0,
                    -1.6495
                ]
            ]
        ]
    },
    "band_gap": 1.1135000000000002,
    "is_direct": false,
    "formula": "HgO"
}