{
    "mp_id": "mp-1211126",
    "nelements": 4,
    "nsites": 24,
    "elements": [
        "Li",
        "O",
        "Sc",
        "W"
    ],
    "structure": {
        "@module": "pymatgen.core.structure",
        "@class": "Structure",
        "charge": null,
        "lattice": {
            "matrix": [
                [
                    4.73532402,
                    -5.74389081,
                    -0.00035732
                ],
                [
                    4.73532402,
                    5.74389081,
                    -0.00035732
                ],
                [
                    -0.11039082,
                    0.0,
                    4.95472688
                ]
            ],
            "a": 7.444163844198286,
            "b": 7.444163844198286,
            "c": 4.955956475649762,
            "alpha": 90.81460095937449,
            "beta": 90.81460095937449,
            "gamma": 100.9949418477017,
            "volume": 269.52860422149433
        },
        "sites": [
            {
                "species": [
                    {
                        "element": "Li",
                        "occu": 1
                    }
                ],
                "abc": [
                    0.34336926,
                    0.65663074,
                    0.75
                ],
                "xyz": [
                    4.652530905,
                    1.7993397360989984,
                    3.71568784
                ],
                "label": "Li",
                "properties": {}
            },
            {
                "species": [
                    {
                        "element": "Li",
                        "occu": 1
                    }
                ],
                "abc": [
                    0.65663074,
                    0.34336926,
                    0.25
                ],
                "xyz": [
                    4.707726315,
                    -1.7993397360989984,
                    1.2383244
                ],
                "label": "Li",
                "properties": {}
            },
            {
                "species": [
                    {
                        "element": "Sc",
                        "occu": 1
                    }
                ],
                "abc": [
                    0.83416538,
                    0.16583462,
                    0.75
                ],
                "xyz": [
                    4.652530905,
                    -3.8388189104043153,
                    3.71568784
                ],
                "label": "Sc",
                "properties": {}
            },
            {
                "species": [
                    {
                        "element": "Sc",
                        "occu": 1
                    }
                ],
                "abc": [
                    0.16583462,
                    0.83416538,
                    0.25
                ],
                "xyz": [
                    4.707726315,
                    3.8388189104043153,
                    1.2383244
                ],
                "label": "Sc",
                "properties": {}
            },
            {
                "species": [
                    {
                        "element": "W",
                        "occu": 1
                    }
                ],
                "abc": [
                    0.83123627,
                    0.65586729,
                    0.74791167
                ],
                "xyz": [
                    6.959354625356641,
                    -1.007300272581074,
                    3.7051666833706305
                ],
                "label": "W",
                "properties": {}
            },
            {
                "species": [
                    {
                        "element": "W",
                        "occu": 1
                    }
                ],
                "abc": [
                    0.16876373,
                    0.34413271,
                    0.25208833
                ],
                "xyz": [
                    2.4009025946433584,
                    1.007300272581074,
                    1.2488455566293697
                ],
                "label": "W",
                "properties": {}
            },
            {
                "species": [
                    {
                        "element": "W",
                        "occu": 1
                    }
                ],
                "abc": [
                    0.34413271,
                    0.16876373,
                    0.75208833
                ],
                "xyz": [
                    2.3457071846433584,
                    -1.007300272581074,
                    3.7262089966293694
                ],
                "label": "W",
                "properties": {}
            },
            {
                "species": [
                    {
                        "element": "W",
                        "occu": 1
                    }
                ],
                "abc": [
                    0.65586729,
                    0.83123627,
                    0.24791167
                ],
                "xyz": [
                    7.014550035356642,
                    1.007300272581074,
                    1.2278032433706305
                ],
                "label": "W",
                "properties": {}
            },
            {
                "species": [
                    {
                        "element": "O",
                        "occu": 1
                    }
                ],
                "abc": [
                    0.94310745,
                    0.30653833,
                    0.09724122
                ],
                "xyz": [
                    5.906743140512035,
                    -3.656383518297787,
                    0.481357163147884
                ],
                "label": "O",
                "properties": {}
            },
            {
                "species": [
                    {
                        "element": "O",
                        "occu": 1
                    }
                ],
                "abc": [
                    0.05689255,
                    0.69346167,
                    0.90275878
                ],
                "xyz": [
                    3.4535140794879653,
                    3.6563835182977873,
                    4.472655076852115
                ],
                "label": "O",
                "properties": {}
            },
            {
                "species": [
                    {
                        "element": "O",
                        "occu": 1
                    }
                ],
                "abc": [
                    0.69346167,
                    0.05689255,
                    0.40275878
                ],
                "xyz": [
                    3.5087094894879653,
                    -3.6563835182977873,
                    1.9952916368521159
                ],
                "label": "O",
                "properties": {}
            },
            {
                "species": [
                    {
                        "element": "O",
                        "occu": 1
                    }
                ],
                "abc": [
                    0.30653833,
                    0.94310745,
                    0.59724122
                ],
                "xyz": [
                    5.851547730512035,
                    3.656383518297787,
                    2.958720603147884
                ],
                "label": "O",
                "properties": {}
            },
            {
                "species": [
                    {
                        "element": "O",
                        "occu": 1
                    }
                ],
                "abc": [
                    0.08611829,
                    0.1990605,
                    0.56908599
                ],
                "xyz": [
                    1.2875921051949242,
                    0.6487277220800902,
                    2.8195637515991687
                ],
                "label": "O",
                "properties": {}
            },
            {
                "species": [
                    {
                        "element": "O",
                        "occu": 1
                    }
                ],
                "abc": [
                    0.91388171,
                    0.8009395,
                    0.43091401
                ],
                "xyz": [
                    8.072665114805075,
                    -0.64872772208009,
                    2.1344484884008317
                ],
                "label": "O",
                "properties": {}
            },
            {
                "species": [
                    {
                        "element": "O",
                        "occu": 1
                    }
                ],
                "abc": [
                    0.8009395,
                    0.91388171,
                    0.93091401
                ],
                "xyz": [
                    8.017469704805075,
                    0.64872772208009,
                    4.611811928400831
                ],
                "label": "O",
                "properties": {}
            },
            {
                "species": [
                    {
                        "element": "O",
                        "occu": 1
                    }
                ],
                "abc": [
                    0.1990605,
                    0.08611829,
                    0.06908599
                ],
                "xyz": [
                    1.3427875151949242,
                    -0.6487277220800902,
                    0.3422003115991684
                ],
                "label": "O",
                "properties": {}
            },
            {
                "species": [
                    {
                        "element": "O",
                        "occu": 1
                    }
                ],
                "abc": [
                    0.81125764,
                    0.4297866,
                    0.60609857
                ],
                "xyz": [
                    5.809838881411517,
                    -2.1911280009371423,
                    3.0026094267807246
                ],
                "label": "O",
                "properties": {}
            },
            {
                "species": [
                    {
                        "element": "O",
                        "occu": 1
                    }
                ],
                "abc": [
                    0.18874236,
                    0.5702134,
                    0.39390143
                ],
                "xyz": [
                    3.550418338588483,
                    2.191128000937142,
                    1.9514028132192751
                ],
                "label": "O",
                "properties": {}
            },
            {
                "species": [
                    {
                        "element": "O",
                        "occu": 1
                    }
                ],
                "abc": [
                    0.5702134,
                    0.18874236,
                    0.89390143
                ],
                "xyz": [
                    3.495222928588483,
                    -2.191128000937142,
                    4.428766253219275
                ],
                "label": "O",
                "properties": {}
            },
            {
                "species": [
                    {
                        "element": "O",
                        "occu": 1
                    }
                ],
                "abc": [
                    0.4297866,
                    0.81125764,
                    0.10609857
                ],
                "xyz": [
                    5.865034291411518,
                    2.1911280009371423,
                    0.5252459867807248
                ],
                "label": "O",
                "properties": {}
            },
            {
                "species": [
                    {
                        "element": "O",
                        "occu": 1
                    }
                ],
                "abc": [
                    0.30677436,
                    0.40743651,
                    0.94028095
                ],
                "xyz": [
                    3.2782215029552186,
                    0.5781923982998411,
                    4.658580095888868
                ],
                "label": "O",
                "properties": {}
            },
            {
                "species": [
                    {
                        "element": "O",
                        "occu": 1
                    }
                ],
                "abc": [
                    0.69322564,
                    0.59256349,
                    0.05971905
                ],
                "xyz": [
                    6.082035717044782,
                    -0.5781923982998416,
                    0.2954321441111324
                ],
                "label": "O",
                "properties": {}
            },
            {
                "species": [
                    {
                        "element": "O",
                        "occu": 1
                    }
                ],
                "abc": [
                    0.59256349,
                    0.69322564,
                    0.55971905
                ],
                "xyz": [
                    6.026840307044782,
                    0.5781923982998416,
                    2.7727955841111327
                ],
                "label": "O",
                "properties": {}
            },
            {
                "species": [
                    {
                        "element": "O",
                        "occu": 1
                    }
                ],
                "abc": [
                    0.40743651,
                    0.30677436,
                    0.44028095
                ],
                "xyz": [
                    3.3334169129552187,
                    -0.5781923982998411,
                    2.1812166558888673
                ],
                "label": "O",
                "properties": {}
            }
        ]
    },
    "spacegroup": {
        "source": "spglib",
        "symbol": "C2/c",
        "number": 15,
        "point_group": "2/m",
        "crystal_system": "monoclinic",
        "hall": "-C 2yc"
    },
    "dielectric": {
        "epsilon_ionic": [
            [
                13.04710887,
                -1e-08,
                1.36903447
            ],
            [
                -1e-08,
                11.93139362,
                -5e-08
            ],
            [
                1.36903447,
                -5e-08,
                16.94861588
            ]
        ],
        "epsilon_ionic_avg": 13.975706123333337,
        "epsilon_ionic_eig": [
            17.38107336383796,
            12.614651386162052,
            11.93139362
        ],
        "epsilon_electronic": [
            [
                4.71411089,
                0.0,
                0.16107978
            ],
            [
                0.0,
                4.74041858,
                0.0
            ],
            [
                0.16107983,
                0.0,
                5.32411545
            ]
        ],
        "epsilon_electronic_avg": 4.926214973333333,
        "epsilon_electronic_eig": [
            4.674188403733448,
            5.364037936266552,
            4.74041858
        ]
    },
    "phonon": {
        "lowest_freq": -0.05905389702946783,
        "frequency": [
            -0.05905389702946783,
            -0.05264834358579252,
            -0.03687688156837669,
            2.31168051876541,
            2.3196555380359523,
            2.7097451470900147,
            2.9533775102796365,
            3.3769888959236467,
            4.206044475249685,
            4.529014999015412,
            4.849041297586431,
            4.996271588795482,
            5.034703270770461,
            5.605890285062061,
            5.881349088304167,
            6.298085370415769,
            6.465076029896423,
            6.774095455890295,
            6.810021785218047,
            7.0104098928366945,
            7.227797654112579,
            7.274023705767964,
            7.343318358068847,
            7.636570700450098,
            7.65090174248653,
            7.6836844224049825,
            8.04575354715787,
            8.265694542479068,
            8.330931292729662,
            8.520233521773113,
            8.593218217570856,
            8.781395229377113,
            8.958052210011312,
            9.333983058901737,
            9.79121855359343,
            9.799931312331749,
            9.896831146177737,
            10.078841376797662,
            10.22531226204185,
            10.674053421628878,
            10.726173059612872,
            10.773941685652394,
            11.124484419571717,
            11.863488002762468,
            11.928863466085353,
            12.27425735227124,
            12.405678221440176,
            12.826750505783055,
            13.680440718545515,
            13.724262658132938,
            14.387407245448573,
            14.529052374401212,
            14.709113961850534,
            15.048722532264785,
            15.639166593070913,
            15.981250689431374,
            16.620324578001473,
            17.931134474552348,
            19.258906738180244,
            19.308014364205402,
            19.52432096246099,
            19.524645419264512,
            19.7269418290289,
            20.0657824524343,
            21.447669783656725,
            22.066322926865762,
            22.2243903187777,
            24.429795485307935,
            24.626209154866313,
            25.75209901798186,
            25.827107510373374,
            26.246794026861494
        ]
    },
    "born_effective_charge": {
        "avg_abs_trace": 3.134749861111111,
        "tensors": [
            [
                [
                    1.67726,
                    -1e-05,
                    0.06495
                ],
                [
                    -0.0,
                    1.25088,
                    0.0
                ],
                [
                    0.00679,
                    3e-05,
                    1.29867
                ]
            ],
            [
                [
                    1.67726,
                    1e-05,
                    0.06495
                ],
                [
                    -0.0,
                    1.25088,
                    0.0
                ],
                [
                    0.00679,
                    -3e-05,
                    1.29867
                ]
            ],
            [
                [
                    5.90267,
                    -6e-05,
                    0.13433
                ],
                [
                    -0.0,
                    4.69617,
                    0.0
                ],
                [
                    0.28558,
                    0.00018,
                    4.45511
                ]
            ],
            [
                [
                    5.90267,
                    6e-05,
                    0.13433
                ],
                [
                    -0.0,
                    4.69616,
                    0.0
                ],
                [
                    0.28558,
                    -0.00018,
                    4.45511
                ]
            ],
            [
                [
                    5.04196,
                    0.44494,
                    0.36083
                ],
                [
                    -0.21286,
                    5.95565,
                    0.80582
                ],
                [
                    0.32757,
                    -0.78248,
                    7.57491
                ]
            ],
            [
                [
                    5.04192,
                    0.44507,
                    0.36088
                ],
                [
                    -0.21271,
                    5.95542,
                    0.80547
                ],
                [
                    0.32756,
                    -0.78184,
                    7.57488
                ]
            ],
            [
                [
                    5.04192,
                    -0.44507,
                    0.36088
                ],
                [
                    0.21286,
                    5.95565,
                    -0.80582
                ],
                [
                    0.32756,
                    0.78184,
                    7.57488
                ]
            ],
            [
                [
                    5.04196,
                    -0.44494,
                    0.36083
                ],
                [
                    0.21271,
                    5.95542,
                    -0.80547
                ],
                [
                    0.32757,
                    0.78248,
                    7.57491
                ]
            ],
            [
                [
                    -2.46863,
                    0.82612,
                    -1.37261
                ],
                [
                    1.17339,
                    -1.90129,
                    0.74803
                ],
                [
                    -1.50699,
                    0.62355,
                    -2.40271
                ]
            ],
            [
                [
                    -2.46873,
                    0.82635,
                    -1.37278
                ],
                [
                    1.17344,
                    -1.90158,
                    0.74785
                ],
                [
                    -1.50666,
                    0.62363,
                    -2.40237
                ]
            ],
            [
                [
                    -2.46873,
                    -0.82635,
                    -1.37278
                ],
                [
                    -1.17339,
                    -1.90129,
                    -0.74803
                ],
                [
                    -1.50666,
                    -0.62363,
                    -2.40237
                ]
            ],
            [
                [
                    -2.46863,
                    -0.82612,
                    -1.37261
                ],
                [
                    -1.17344,
                    -1.90158,
                    -0.74785
                ],
                [
                    -1.50699,
                    -0.62355,
                    -2.40271
                ]
            ],
            [
                [
                    -2.25691,
                    0.75133,
                    0.97431
                ],
                [
                    0.75687,
                    -2.07465,
                    0.24707
                ],
                [
                    1.08712,
                    0.46392,
                    -3.21658
                ]
            ],
            [
                [
                    -2.25646,
                    0.75111,
                    0.97399
                ],
                [
                    0.75706,
                    -2.0744,
                    0.24678
                ],
                [
                    1.08676,
                    0.46368,
                    -3.21629
                ]
            ],
            [
                [
                    -2.25646,
                    -0.75111,
                    0.97399
                ],
                [
                    -0.75687,
                    -2.07465,
                    -0.24707
                ],
                [
                    1.08676,
                    -0.46368,
                    -3.21629
                ]
            ],
            [
                [
                    -2.25691,
                    -0.75133,
                    0.97431
                ],
                [
                    -0.75706,
                    -2.0744,
                    -0.24678
                ],
                [
                    1.08712,
                    -0.46392,
                    -3.21658
                ]
            ],
            [
                [
                    -2.62054,
                    -1.88719,
                    -0.54395
                ],
                [
                    -1.74941,
                    -3.00052,
                    -0.53501
                ],
                [
                    -0.61189,
                    -0.37396,
                    -1.45198
                ]
            ],
            [
                [
                    -2.62045,
                    -1.88702,
                    -0.54387
                ],
                [
                    -1.74973,
                    -3.00065,
                    -0.53518
                ],
                [
                    -0.61145,
                    -0.37367,
                    -1.45176
                ]
            ],
            [
                [
                    -2.62045,
                    1.88702,
                    -0.54387
                ],
                [
                    1.74941,
                    -3.00052,
                    0.53501
                ],
                [
                    -0.61145,
                    0.37367,
                    -1.45176
                ]
            ],
            [
                [
                    -2.62054,
                    1.88719,
                    -0.54395
                ],
                [
                    1.74973,
                    -3.00065,
                    0.53518
                ],
                [
                    -0.61189,
                    0.37396,
                    -1.45198
                ]
            ],
            [
                [
                    -1.48613,
                    -0.20956,
                    0.48197
                ],
                [
                    -0.10452,
                    -1.95252,
                    -1.1207
                ],
                [
                    0.55763,
                    -1.41996,
                    -3.38075
                ]
            ],
            [
                [
                    -1.48597,
                    -0.20938,
                    0.48196
                ],
                [
                    -0.10452,
                    -1.9525,
                    -1.1207
                ],
                [
                    0.55799,
                    -1.42007,
                    -3.38113
                ]
            ],
            [
                [
                    -1.48597,
                    0.20938,
                    0.48196
                ],
                [
                    0.10452,
                    -1.95252,
                    1.1207
                ],
                [
                    0.55799,
                    1.42007,
                    -3.38113
                ]
            ],
            [
                [
                    -1.48613,
                    0.20956,
                    0.48197
                ],
                [
                    0.10452,
                    -1.9525,
                    1.1207
                ],
                [
                    0.55763,
                    1.41996,
                    -3.38075
                ]
            ]
        ]
    },
    "band_gap": 3.4819000000000004,
    "is_direct": false,
    "formula": "LiSc(WO4)2"
}