{
    "mp_id": "mp-1211281",
    "nelements": 4,
    "nsites": 23,
    "elements": [
        "Ga",
        "Hf",
        "La",
        "O"
    ],
    "structure": {
        "@module": "pymatgen.core.structure",
        "@class": "Structure",
        "charge": null,
        "lattice": {
            "matrix": [
                [
                    8.26300111,
                    -0.0,
                    0.0
                ],
                [
                    -4.13150005,
                    7.15596875,
                    0.0
                ],
                [
                    0.0,
                    0.0,
                    5.16122772
                ]
            ],
            "a": 8.26300111,
            "b": 8.263000751187583,
            "c": 5.16122772,
            "alpha": 90.0,
            "beta": 90.0,
            "gamma": 119.9999973930643,
            "volume": 305.18224786848435
        },
        "sites": [
            {
                "species": [
                    {
                        "element": "La",
                        "occu": 1
                    }
                ],
                "abc": [
                    0.57269046,
                    0.0,
                    0.0
                ],
                "xyz": [
                    4.732141906666411,
                    0.0,
                    0.0
                ],
                "label": "La",
                "properties": {}
            },
            {
                "species": [
                    {
                        "element": "La",
                        "occu": 1
                    }
                ],
                "abc": [
                    0.0,
                    0.57269046,
                    0.0
                ],
                "xyz": [
                    -2.366070664124523,
                    4.098155035183125,
                    0.0
                ],
                "label": "La",
                "properties": {}
            },
            {
                "species": [
                    {
                        "element": "La",
                        "occu": 1
                    }
                ],
                "abc": [
                    0.42730954,
                    0.42730954,
                    0.0
                ],
                "xyz": [
                    1.7654298174581122,
                    3.057813714816875,
                    0.0
                ],
                "label": "La",
                "properties": {}
            },
            {
                "species": [
                    {
                        "element": "Hf",
                        "occu": 1
                    }
                ],
                "abc": [
                    0.0,
                    0.0,
                    0.0
                ],
                "xyz": [
                    0.0,
                    0.0,
                    0.0
                ],
                "label": "Hf",
                "properties": {}
            },
            {
                "species": [
                    {
                        "element": "Ga",
                        "occu": 1
                    }
                ],
                "abc": [
                    0.333333,
                    0.666667,
                    0.53054315
                ],
                "xyz": [
                    -3.7948337201498816e-06,
                    4.77064821865625,
                    2.738254012436118
                ],
                "label": "Ga",
                "properties": {}
            },
            {
                "species": [
                    {
                        "element": "Ga",
                        "occu": 1
                    }
                ],
                "abc": [
                    0.666667,
                    0.333333,
                    0.46945685
                ],
                "xyz": [
                    4.13150485483372,
                    2.38532053134375,
                    2.422973707563882
                ],
                "label": "Ga",
                "properties": {}
            },
            {
                "species": [
                    {
                        "element": "Ga",
                        "occu": 1
                    }
                ],
                "abc": [
                    0.24631416,
                    0.0,
                    0.5
                ],
                "xyz": [
                    2.0352941774887174,
                    0.0,
                    2.58061386
                ],
                "label": "Ga",
                "properties": {}
            },
            {
                "species": [
                    {
                        "element": "Ga",
                        "occu": 1
                    }
                ],
                "abc": [
                    0.0,
                    0.24631416,
                    0.5
                ],
                "xyz": [
                    -1.017646964355708,
                    1.7626164316425001,
                    2.58061386
                ],
                "label": "Ga",
                "properties": {}
            },
            {
                "species": [
                    {
                        "element": "Ga",
                        "occu": 1
                    }
                ],
                "abc": [
                    0.75368584,
                    0.75368584,
                    0.5
                ],
                "xyz": [
                    3.11385384686699,
                    5.3933523183575005,
                    2.58061386
                ],
                "label": "Ga",
                "properties": {}
            },
            {
                "species": [
                    {
                        "element": "O",
                        "occu": 1
                    }
                ],
                "abc": [
                    0.14890258,
                    0.23059189,
                    0.24449301
                ],
                "xyz": [
                    0.27769177875726947,
                    1.6501083588434375,
                    1.2618841005582373
                ],
                "label": "O",
                "properties": {}
            },
            {
                "species": [
                    {
                        "element": "O",
                        "occu": 1
                    }
                ],
                "abc": [
                    0.76940811,
                    0.91831069,
                    0.24449301
                ],
                "xyz": [
                    2.5636194053224672,
                    6.571402600430938,
                    1.2618841005582373
                ],
                "label": "O",
                "properties": {}
            },
            {
                "species": [
                    {
                        "element": "O",
                        "occu": 1
                    }
                ],
                "abc": [
                    0.23059189,
                    0.14890258,
                    0.75550699
                ],
                "xyz": [
                    1.2901900263118686,
                    1.0655422092743752,
                    3.8993436194417628
                ],
                "label": "O",
                "properties": {}
            },
            {
                "species": [
                    {
                        "element": "O",
                        "occu": 1
                    }
                ],
                "abc": [
                    0.08168931,
                    0.85109742,
                    0.24449301
                ],
                "xyz": [
                    -2.8413101740797364,
                    6.090426540725625,
                    1.2618841005582373
                ],
                "label": "O",
                "properties": {}
            },
            {
                "species": [
                    {
                        "element": "O",
                        "occu": 1
                    }
                ],
                "abc": [
                    0.91831069,
                    0.76940811,
                    0.75550699
                ],
                "xyz": [
                    4.4091926058594595,
                    5.5058603911565625,
                    3.8993436194417628
                ],
                "label": "O",
                "properties": {}
            },
            {
                "species": [
                    {
                        "element": "O",
                        "occu": 1
                    }
                ],
                "abc": [
                    0.85109742,
                    0.08168931,
                    0.75550699
                ],
                "xyz": [
                    6.69511953782867,
                    0.5845661495690625,
                    3.8993436194417628
                ],
                "label": "O",
                "properties": {}
            },
            {
                "species": [
                    {
                        "element": "O",
                        "occu": 1
                    }
                ],
                "abc": [
                    0.333333,
                    0.666667,
                    0.17991138
                ],
                "xyz": [
                    -3.7948337201498816e-06,
                    4.77064821865625,
                    0.9285636015994537
                ],
                "label": "O",
                "properties": {}
            },
            {
                "species": [
                    {
                        "element": "O",
                        "occu": 1
                    }
                ],
                "abc": [
                    0.666667,
                    0.333333,
                    0.82008862
                ],
                "xyz": [
                    4.13150485483372,
                    2.38532053134375,
                    4.232664118400547
                ],
                "label": "O",
                "properties": {}
            },
            {
                "species": [
                    {
                        "element": "O",
                        "occu": 1
                    }
                ],
                "abc": [
                    0.45899831,
                    0.14582749,
                    0.29931722
                ],
                "xyz": [
                    3.1902172627917493,
                    1.0435369613309375,
                    1.5448443329373385
                ],
                "label": "O",
                "properties": {}
            },
            {
                "species": [
                    {
                        "element": "O",
                        "occu": 1
                    }
                ],
                "abc": [
                    0.85417251,
                    0.31317082,
                    0.29931722
                ],
                "xyz": [
                    5.764163139772945,
                    2.2410406013318753,
                    1.5448443329373385
                ],
                "label": "O",
                "properties": {}
            },
            {
                "species": [
                    {
                        "element": "O",
                        "occu": 1
                    }
                ],
                "abc": [
                    0.14582749,
                    0.45899831,
                    0.70068278
                ],
                "xyz": [
                    -0.6913788289764016,
                    3.284577562662813,
                    3.6163833870626614
                ],
                "label": "O",
                "properties": {}
            },
            {
                "species": [
                    {
                        "element": "O",
                        "occu": 1
                    }
                ],
                "abc": [
                    0.68682918,
                    0.54100169,
                    0.29931722
                ],
                "xyz": [
                    3.440121767435306,
                    3.8713911873371876,
                    1.5448443329373385
                ],
                "label": "O",
                "properties": {}
            },
            {
                "species": [
                    {
                        "element": "O",
                        "occu": 1
                    }
                ],
                "abc": [
                    0.31317082,
                    0.85417251,
                    0.70068278
                ],
                "xyz": [
                    -0.9412829344940152,
                    6.112431788669063,
                    3.6163833870626614
                ],
                "label": "O",
                "properties": {}
            },
            {
                "species": [
                    {
                        "element": "O",
                        "occu": 1
                    }
                ],
                "abc": [
                    0.54100169,
                    0.68682918,
                    0.70068278
                ],
                "xyz": [
                    1.632662773470416,
                    4.9149281486681256,
                    3.6163833870626614
                ],
                "label": "O",
                "properties": {}
            }
        ]
    },
    "spacegroup": {
        "source": "spglib",
        "symbol": "P321",
        "number": 150,
        "point_group": "32",
        "crystal_system": "trigonal",
        "hall": "P 3 2\""
    },
    "dielectric": {
        "epsilon_ionic": [
            [
                15.67816221,
                -0.00055456,
                -1e-07
            ],
            [
                -0.00055456,
                15.67844671,
                -0.00731257
            ],
            [
                -1e-07,
                -0.00731257,
                128.80018661
            ]
        ],
        "epsilon_ionic_avg": 53.38559851,
        "epsilon_ionic_eig": [
            15.67773176869089,
            15.678876678599961,
            128.80018708270916
        ],
        "epsilon_electronic": [
            [
                4.05862235,
                2.8e-07,
                0.0
            ],
            [
                2.8e-07,
                4.0586226,
                0.0
            ],
            [
                -0.0,
                0.0,
                4.16251143
            ]
        ],
        "epsilon_electronic_avg": 4.093252126666667,
        "epsilon_electronic_eig": [
            4.058622168365038,
            4.058622781634962,
            4.16251143
        ]
    },
    "phonon": {
        "lowest_freq": -0.12346975258602931,
        "frequency": [
            -0.12346975258602931,
            -0.06254929318524054,
            -0.06254928830108981,
            0.4512328738004368,
            2.504625828412411,
            2.5046258772021597,
            2.657544823365651,
            2.657544832562114,
            2.875626919069675,
            3.054006611351321,
            3.0540066833747788,
            3.4151316667712126,
            3.415131681083992,
            3.5834392367377528,
            4.093872813531964,
            4.6357590533425626,
            4.635759198324289,
            4.951597566001112,
            4.979703982781373,
            5.075511978093367,
            5.075512098475374,
            5.51424737034478,
            5.514247392505568,
            5.927495602388038,
            5.938194124057653,
            6.467654256550156,
            6.467654502172565,
            6.910455646550917,
            6.910455699600992,
            7.202038790823068,
            7.49845676312854,
            7.4984567794252355,
            7.6826689748236765,
            8.086281944551493,
            8.08628236768808,
            8.804260500300517,
            8.92690502300394,
            8.926905406294875,
            9.221983984106148,
            9.221984050360907,
            10.002510630296314,
            10.028930713858733,
            10.02893089663006,
            12.863638270660408,
            12.863638441654112,
            13.808520163757228,
            13.808520278802202,
            13.886615731240841,
            14.433844789275243,
            14.433844814673895,
            14.711643820183056,
            14.86606282971967,
            16.00807445621958,
            16.00807445621958,
            16.872450259964836,
            17.218395476258344,
            17.218395618199636,
            17.499825106752592,
            18.41298625268598,
            18.41298631905222,
            18.91012578422519,
            19.068086553116547,
            19.65303569601516,
            19.653035820372605,
            20.510679052333725,
            20.711707333486604,
            20.71170739248708,
            21.302892422780374,
            21.795786441139544
        ]
    },
    "born_effective_charge": {
        "avg_abs_trace": 2.73987347826087,
        "tensors": [
            [
                [
                    4.51931,
                    0.0,
                    -0.0
                ],
                [
                    -0.00076,
                    4.15692,
                    0.13945
                ],
                [
                    2e-05,
                    0.06424,
                    3.77336
                ]
            ],
            [
                [
                    4.2474,
                    -0.15687,
                    -0.12108
                ],
                [
                    -0.15703,
                    4.42866,
                    -0.06962
                ],
                [
                    -0.05564,
                    -0.03211,
                    3.77336
                ]
            ],
            [
                [
                    4.2474,
                    0.15687,
                    0.12108
                ],
                [
                    0.15638,
                    4.42837,
                    -0.07031
                ],
                [
                    0.05563,
                    -0.03213,
                    3.77336
                ]
            ],
            [
                [
                    4.45827,
                    0.0,
                    -0.0
                ],
                [
                    -9e-05,
                    4.45829,
                    -0.0003
                ],
                [
                    -0.0,
                    0.0,
                    5.01004
                ]
            ],
            [
                [
                    2.4726,
                    0.10877,
                    -4e-05
                ],
                [
                    -0.1089,
                    2.47232,
                    0.00026
                ],
                [
                    -0.0,
                    0.0,
                    2.93847
                ]
            ],
            [
                [
                    2.4726,
                    -0.10877,
                    4e-05
                ],
                [
                    0.10873,
                    2.4723,
                    2e-05
                ],
                [
                    -0.0,
                    0.0,
                    2.93853
                ]
            ],
            [
                [
                    3.08337,
                    0.0,
                    -0.0
                ],
                [
                    0.00024,
                    2.7684,
                    -0.17192
                ],
                [
                    0.0,
                    0.05618,
                    3.30944
                ]
            ],
            [
                [
                    2.84722,
                    -0.13626,
                    0.14888
                ],
                [
                    -0.13629,
                    3.00479,
                    0.08643
                ],
                [
                    -0.04866,
                    -0.02809,
                    3.30944
                ]
            ],
            [
                [
                    2.84722,
                    0.13626,
                    -0.14888
                ],
                [
                    0.13626,
                    3.00475,
                    0.08623
                ],
                [
                    0.04865,
                    -0.0281,
                    3.30944
                ]
            ],
            [
                [
                    -2.08905,
                    -0.28365,
                    0.57092
                ],
                [
                    -0.28628,
                    -2.48012,
                    -0.33422
                ],
                [
                    0.49185,
                    -0.27079,
                    -2.46407
                ]
            ],
            [
                [
                    -2.62957,
                    -0.02538,
                    0.00419
                ],
                [
                    -0.02831,
                    -1.93992,
                    0.66142
                ],
                [
                    -0.01142,
                    0.56135,
                    -2.46407
                ]
            ],
            [
                [
                    -2.13557,
                    -0.3137,
                    0.57505
                ],
                [
                    -0.31045,
                    -2.43376,
                    -0.32735
                ],
                [
                    0.48013,
                    -0.29056,
                    -2.46393
                ]
            ],
            [
                [
                    -2.13557,
                    0.3137,
                    -0.57505
                ],
                [
                    0.31061,
                    -2.43388,
                    -0.32706
                ],
                [
                    -0.48043,
                    -0.29056,
                    -2.46407
                ]
            ],
            [
                [
                    -2.08905,
                    0.28365,
                    -0.57092
                ],
                [
                    0.28685,
                    -2.48043,
                    -0.33441
                ],
                [
                    -0.4917,
                    -0.27052,
                    -2.46393
                ]
            ],
            [
                [
                    -2.62957,
                    0.02538,
                    -0.00419
                ],
                [
                    0.02883,
                    -1.94004,
                    0.66175
                ],
                [
                    0.01157,
                    0.56109,
                    -2.46393
                ]
            ],
            [
                [
                    -2.12858,
                    -0.07234,
                    0.0001
                ],
                [
                    0.07213,
                    -2.12852,
                    -0.00017
                ],
                [
                    -0.0,
                    0.0,
                    -2.29184
                ]
            ],
            [
                [
                    -2.12858,
                    0.07234,
                    -0.0001
                ],
                [
                    -0.07239,
                    -2.12861,
                    4e-05
                ],
                [
                    -0.0,
                    0.0,
                    -2.2919
                ]
            ],
            [
                [
                    -2.21544,
                    -0.14505,
                    0.35719
                ],
                [
                    -0.22084,
                    -2.19443,
                    -0.1681
                ],
                [
                    0.362,
                    -0.15357,
                    -2.12801
                ]
            ],
            [
                [
                    -2.35815,
                    0.1385,
                    -0.03297
                ],
                [
                    0.06262,
                    -2.05154,
                    0.39335
                ],
                [
                    -0.04801,
                    0.39029,
                    -2.12801
                ]
            ],
            [
                [
                    -2.04134,
                    -0.12047,
                    0.32403
                ],
                [
                    -0.04441,
                    -2.3687,
                    -0.22536
                ],
                [
                    0.31405,
                    -0.23665,
                    -2.12789
                ]
            ],
            [
                [
                    -2.04134,
                    0.12047,
                    -0.32403
                ],
                [
                    0.04438,
                    -2.36861,
                    -0.22529
                ],
                [
                    -0.31399,
                    -0.23672,
                    -2.12801
                ]
            ],
            [
                [
                    -2.21544,
                    0.14505,
                    -0.35719
                ],
                [
                    0.22099,
                    -2.19446,
                    -0.16802
                ],
                [
                    -0.36197,
                    -0.15365,
                    -2.12789
                ]
            ],
            [
                [
                    -2.35815,
                    -0.1385,
                    0.03297
                ],
                [
                    -0.06226,
                    -2.05178,
                    0.39319
                ],
                [
                    0.04792,
                    0.3903,
                    -2.12789
                ]
            ]
        ]
    },
    "band_gap": 3.801,
    "is_direct": false,
    "formula": "La3HfGa5O14"
}