{
    "mp_id": "mp-1210286",
    "nelements": 3,
    "nsites": 24,
    "elements": [
        "Na",
        "O",
        "Re"
    ],
    "structure": {
        "@module": "pymatgen.core.structure",
        "@class": "Structure",
        "charge": null,
        "lattice": {
            "matrix": [
                [
                    5.52943945,
                    0.0,
                    0.0
                ],
                [
                    -2.76471922,
                    4.78863456,
                    0.0
                ],
                [
                    0.0,
                    0.0,
                    12.0232803
                ]
            ],
            "a": 5.52943945,
            "b": 5.529438788400122,
            "c": 12.0232803,
            "alpha": 90.0,
            "beta": 90.0,
            "gamma": 119.99999791570472,
            "volume": 318.35800477756254
        },
        "sites": [
            {
                "species": [
                    {
                        "element": "Na",
                        "occu": 1
                    }
                ],
                "abc": [
                    0.333333,
                    0.666667,
                    0.75
                ],
                "xyz": [
                    -2.428052890079968e-06,
                    3.1924246362115203,
                    9.017460225
                ],
                "label": "Na",
                "properties": {}
            },
            {
                "species": [
                    {
                        "element": "Na",
                        "occu": 1
                    }
                ],
                "abc": [
                    0.666667,
                    0.333333,
                    0.25
                ],
                "xyz": [
                    2.7647226580528903,
                    1.59620992378848,
                    3.005820075
                ],
                "label": "Na",
                "properties": {}
            },
            {
                "species": [
                    {
                        "element": "Na",
                        "occu": 1
                    }
                ],
                "abc": [
                    0.666667,
                    0.333333,
                    0.75
                ],
                "xyz": [
                    2.7647226580528903,
                    1.59620992378848,
                    9.017460225
                ],
                "label": "Na",
                "properties": {}
            },
            {
                "species": [
                    {
                        "element": "Na",
                        "occu": 1
                    }
                ],
                "abc": [
                    0.333333,
                    0.666667,
                    0.25
                ],
                "xyz": [
                    -2.428052890079968e-06,
                    3.1924246362115203,
                    3.005820075
                ],
                "label": "Na",
                "properties": {}
            },
            {
                "species": [
                    {
                        "element": "Na",
                        "occu": 1
                    }
                ],
                "abc": [
                    0.333333,
                    0.666667,
                    0.5
                ],
                "xyz": [
                    -2.428052890079968e-06,
                    3.1924246362115203,
                    6.01164015
                ],
                "label": "Na",
                "properties": {}
            },
            {
                "species": [
                    {
                        "element": "Na",
                        "occu": 1
                    }
                ],
                "abc": [
                    0.666667,
                    0.333333,
                    0.5
                ],
                "xyz": [
                    2.7647226580528903,
                    1.59620992378848,
                    6.01164015
                ],
                "label": "Na",
                "properties": {}
            },
            {
                "species": [
                    {
                        "element": "Na",
                        "occu": 1
                    }
                ],
                "abc": [
                    0.666667,
                    0.333333,
                    0.0
                ],
                "xyz": [
                    2.7647226580528903,
                    1.59620992378848,
                    0.0
                ],
                "label": "Na",
                "properties": {}
            },
            {
                "species": [
                    {
                        "element": "Na",
                        "occu": 1
                    }
                ],
                "abc": [
                    0.333333,
                    0.666667,
                    0.0
                ],
                "xyz": [
                    -2.428052890079968e-06,
                    3.1924246362115203,
                    0.0
                ],
                "label": "Na",
                "properties": {}
            },
            {
                "species": [
                    {
                        "element": "Re",
                        "occu": 1
                    }
                ],
                "abc": [
                    0.0,
                    0.0,
                    0.65395045
                ],
                "xyz": [
                    0.0,
                    0.0,
                    7.862629562661135
                ],
                "label": "Re",
                "properties": {}
            },
            {
                "species": [
                    {
                        "element": "Re",
                        "occu": 1
                    }
                ],
                "abc": [
                    0.0,
                    0.0,
                    0.34604955
                ],
                "xyz": [
                    0.0,
                    0.0,
                    4.160650737338865
                ],
                "label": "Re",
                "properties": {}
            },
            {
                "species": [
                    {
                        "element": "Re",
                        "occu": 1
                    }
                ],
                "abc": [
                    0.0,
                    0.0,
                    0.15395045
                ],
                "xyz": [
                    0.0,
                    0.0,
                    1.8509894126611348
                ],
                "label": "Re",
                "properties": {}
            },
            {
                "species": [
                    {
                        "element": "Re",
                        "occu": 1
                    }
                ],
                "abc": [
                    0.0,
                    0.0,
                    0.84604955
                ],
                "xyz": [
                    0.0,
                    0.0,
                    10.172290887338866
                ],
                "label": "Re",
                "properties": {}
            },
            {
                "species": [
                    {
                        "element": "O",
                        "occu": 1
                    }
                ],
                "abc": [
                    0.3242462,
                    0.0,
                    0.62341099
                ],
                "xyz": [
                    1.79289972979259,
                    0.0,
                    7.495445074870497
                ],
                "label": "O",
                "properties": {}
            },
            {
                "species": [
                    {
                        "element": "O",
                        "occu": 1
                    }
                ],
                "abc": [
                    0.6757538,
                    0.0,
                    0.37658901
                ],
                "xyz": [
                    3.7365397202074098,
                    0.0,
                    4.527835225129503
                ],
                "label": "O",
                "properties": {}
            },
            {
                "species": [
                    {
                        "element": "O",
                        "occu": 1
                    }
                ],
                "abc": [
                    0.0,
                    0.3242462,
                    0.62341099
                ],
                "xyz": [
                    -0.896449701151964,
                    1.552696559268672,
                    7.495445074870497
                ],
                "label": "O",
                "properties": {}
            },
            {
                "species": [
                    {
                        "element": "O",
                        "occu": 1
                    }
                ],
                "abc": [
                    0.6757538,
                    0.0,
                    0.12341099
                ],
                "xyz": [
                    3.7365397202074098,
                    0.0,
                    1.483804924870497
                ],
                "label": "O",
                "properties": {}
            },
            {
                "species": [
                    {
                        "element": "O",
                        "occu": 1
                    }
                ],
                "abc": [
                    0.0,
                    0.3242462,
                    0.87658901
                ],
                "xyz": [
                    -0.896449701151964,
                    1.552696559268672,
                    10.539475375129502
                ],
                "label": "O",
                "properties": {}
            },
            {
                "species": [
                    {
                        "element": "O",
                        "occu": 1
                    }
                ],
                "abc": [
                    0.0,
                    0.6757538,
                    0.37658901
                ],
                "xyz": [
                    -1.8682695188480358,
                    3.235938000731328,
                    4.527835225129503
                ],
                "label": "O",
                "properties": {}
            },
            {
                "species": [
                    {
                        "element": "O",
                        "occu": 1
                    }
                ],
                "abc": [
                    0.3242462,
                    0.0,
                    0.87658901
                ],
                "xyz": [
                    1.79289972979259,
                    0.0,
                    10.539475375129502
                ],
                "label": "O",
                "properties": {}
            },
            {
                "species": [
                    {
                        "element": "O",
                        "occu": 1
                    }
                ],
                "abc": [
                    0.0,
                    0.6757538,
                    0.12341099
                ],
                "xyz": [
                    -1.8682695188480358,
                    3.235938000731328,
                    1.483804924870497
                ],
                "label": "O",
                "properties": {}
            },
            {
                "species": [
                    {
                        "element": "O",
                        "occu": 1
                    }
                ],
                "abc": [
                    0.6757538,
                    0.6757538,
                    0.62341099
                ],
                "xyz": [
                    1.868270201359374,
                    3.235938000731328,
                    7.495445074870497
                ],
                "label": "O",
                "properties": {}
            },
            {
                "species": [
                    {
                        "element": "O",
                        "occu": 1
                    }
                ],
                "abc": [
                    0.3242462,
                    0.3242462,
                    0.37658901
                ],
                "xyz": [
                    0.896450028640626,
                    1.552696559268672,
                    4.527835225129503
                ],
                "label": "O",
                "properties": {}
            },
            {
                "species": [
                    {
                        "element": "O",
                        "occu": 1
                    }
                ],
                "abc": [
                    0.3242462,
                    0.3242462,
                    0.12341099
                ],
                "xyz": [
                    0.896450028640626,
                    1.552696559268672,
                    1.483804924870497
                ],
                "label": "O",
                "properties": {}
            },
            {
                "species": [
                    {
                        "element": "O",
                        "occu": 1
                    }
                ],
                "abc": [
                    0.6757538,
                    0.6757538,
                    0.87658901
                ],
                "xyz": [
                    1.868270201359374,
                    3.235938000731328,
                    10.539475375129502
                ],
                "label": "O",
                "properties": {}
            }
        ]
    },
    "spacegroup": {
        "source": "spglib",
        "symbol": "P6_3/mcm",
        "number": 193,
        "point_group": "6/mmm",
        "crystal_system": "hexagonal",
        "hall": "-P 6c 2"
    },
    "dielectric": {
        "epsilon_ionic": [
            [
                3.5642499,
                -1.39e-06,
                0.0
            ],
            [
                -1.39e-06,
                3.56377653,
                1e-08
            ],
            [
                0.0,
                1e-08,
                2.6905566
            ]
        ],
        "epsilon_ionic_avg": 3.2728610099999997,
        "epsilon_ionic_eig": [
            3.564249904081549,
            3.563776525918451,
            2.6905565999999994
        ],
        "epsilon_electronic": [
            [
                3.37782586,
                -3.5e-07,
                0.0
            ],
            [
                -3.5e-07,
                3.37782636,
                -0.0
            ],
            [
                0.0,
                0.0,
                4.00389986
            ]
        ],
        "epsilon_electronic_avg": 3.5865173599999998,
        "epsilon_electronic_eig": [
            3.377825679883737,
            3.377826540116263,
            4.00389986
        ]
    },
    "phonon": {
        "lowest_freq": -0.09012697798670444,
        "frequency": [
            -0.09012697798670444,
            -0.09012696632625984,
            -0.07221231322993074,
            1.543677564149096,
            1.5436777620532127,
            2.525044446186176,
            2.7376092252764455,
            2.737609555594017,
            3.168434673945277,
            3.1684350364840923,
            4.578861713823463,
            4.660725232121632,
            4.660725822051561,
            4.904252029933133,
            5.011612417053359,
            5.0116130266379,
            5.152394420521151,
            5.152395013449646,
            5.166847700060398,
            5.166848267679493,
            5.82378192374609,
            5.834357501220699,
            5.854104118117837,
            5.888876094581792,
            5.888876800115738,
            5.940802513436604,
            5.940803253942971,
            6.36704845383791,
            6.367049163963208,
            6.470493708553186,
            6.4966947106913215,
            6.496695481883846,
            6.6909023454495475,
            7.57896526544666,
            7.623576907170699,
            7.623577067462994,
            7.638848719125477,
            7.638848783114211,
            7.905749939600334,
            7.957039044053253,
            8.188353519460282,
            8.309225254953425,
            8.410821912953073,
            8.504824738375188,
            8.504824853321768,
            8.576370389042212,
            8.678462193989596,
            8.678462644576568,
            9.002852348804785,
            9.002852932464547,
            9.108274231460513,
            9.108274472955346,
            9.744884130161584,
            9.744884606678525,
            9.923816478088048,
            9.923816822874933,
            10.195371172089866,
            10.350475249606381,
            10.747366024188578,
            11.320506643856023,
            21.069388541391643,
            21.069389875365534,
            21.329415252289255,
            21.32941657000068,
            22.772987290464723,
            22.772988953927598,
            22.942226972376794,
            22.942228623568678,
            22.99064502244275,
            24.303702645514786,
            25.015102361660276,
            25.163078368775448
        ]
    },
    "born_effective_charge": {
        "avg_abs_trace": 1.3709305555555555,
        "tensors": [
            [
                [
                    1.22077,
                    -0.16705,
                    0.0
                ],
                [
                    0.16705,
                    1.22072,
                    -0.0
                ],
                [
                    0.0,
                    0.0,
                    0.45856
                ]
            ],
            [
                [
                    1.22082,
                    -0.16704,
                    0.0
                ],
                [
                    0.16702,
                    1.22072,
                    -0.0
                ],
                [
                    0.0,
                    0.0,
                    0.45856
                ]
            ],
            [
                [
                    1.22077,
                    0.16705,
                    0.0
                ],
                [
                    -0.16702,
                    1.22072,
                    -0.0
                ],
                [
                    0.0,
                    0.0,
                    0.45856
                ]
            ],
            [
                [
                    1.22082,
                    0.16704,
                    0.0
                ],
                [
                    -0.16705,
                    1.22072,
                    -0.0
                ],
                [
                    0.0,
                    0.0,
                    0.45856
                ]
            ],
            [
                [
                    1.18191,
                    1e-05,
                    -0.00011
                ],
                [
                    -0.0,
                    1.18182,
                    -0.0
                ],
                [
                    0.0,
                    0.0,
                    1.58381
                ]
            ],
            [
                [
                    1.18191,
                    -1e-05,
                    -0.00011
                ],
                [
                    -0.0,
                    1.18184,
                    -0.0
                ],
                [
                    0.0,
                    0.0,
                    1.58381
                ]
            ],
            [
                [
                    1.18191,
                    -1e-05,
                    0.00011
                ],
                [
                    -0.0,
                    1.18184,
                    -0.0
                ],
                [
                    0.0,
                    0.0,
                    1.58381
                ]
            ],
            [
                [
                    1.18191,
                    1e-05,
                    0.00011
                ],
                [
                    -0.0,
                    1.18182,
                    -0.0
                ],
                [
                    0.0,
                    0.0,
                    1.58381
                ]
            ],
            [
                [
                    2.38305,
                    0.0,
                    -0.00044
                ],
                [
                    0.00135,
                    2.38412,
                    -9e-05
                ],
                [
                    0.0,
                    0.0,
                    0.72218
                ]
            ],
            [
                [
                    2.38533,
                    0.0,
                    -0.00023
                ],
                [
                    -0.00135,
                    2.38412,
                    9e-05
                ],
                [
                    0.0,
                    0.0,
                    0.72271
                ]
            ],
            [
                [
                    2.38533,
                    0.0,
                    0.00023
                ],
                [
                    -0.00135,
                    2.38412,
                    -9e-05
                ],
                [
                    0.0,
                    0.0,
                    0.72218
                ]
            ],
            [
                [
                    2.38305,
                    0.0,
                    0.00044
                ],
                [
                    0.00135,
                    2.38412,
                    9e-05
                ],
                [
                    0.0,
                    0.0,
                    0.72271
                ]
            ],
            [
                [
                    -2.42409,
                    0.0,
                    0.50443
                ],
                [
                    -0.0013,
                    -0.76625,
                    0.00076
                ],
                [
                    1.16775,
                    0.0,
                    -0.92147
                ]
            ],
            [
                [
                    -2.42594,
                    0.0,
                    0.50575
                ],
                [
                    0.0013,
                    -0.76625,
                    -0.00076
                ],
                [
                    1.1677,
                    0.0,
                    -0.92174
                ]
            ],
            [
                [
                    -1.18113,
                    0.71753,
                    -0.25214
                ],
                [
                    0.71811,
                    -2.00951,
                    0.43711
                ],
                [
                    -0.58388,
                    1.0113,
                    -0.92147
                ]
            ],
            [
                [
                    -2.42594,
                    0.0,
                    -0.50575
                ],
                [
                    0.0013,
                    -0.76625,
                    0.00076
                ],
                [
                    -1.16775,
                    0.0,
                    -0.92147
                ]
            ],
            [
                [
                    -1.18113,
                    0.71753,
                    0.25214
                ],
                [
                    0.71811,
                    -2.00951,
                    -0.43711
                ],
                [
                    0.58385,
                    -1.01126,
                    -0.92174
                ]
            ],
            [
                [
                    -1.18075,
                    0.71883,
                    -0.25284
                ],
                [
                    0.71813,
                    -2.0109,
                    0.43757
                ],
                [
                    -0.58385,
                    1.01126,
                    -0.92174
                ]
            ],
            [
                [
                    -2.42409,
                    0.0,
                    -0.50443
                ],
                [
                    -0.0013,
                    -0.76625,
                    -0.00076
                ],
                [
                    -1.1677,
                    0.0,
                    -0.92174
                ]
            ],
            [
                [
                    -1.18075,
                    0.71883,
                    0.25284
                ],
                [
                    0.71813,
                    -2.0109,
                    -0.43757
                ],
                [
                    0.58388,
                    -1.0113,
                    -0.92147
                ]
            ],
            [
                [
                    -1.18113,
                    -0.71753,
                    -0.25214
                ],
                [
                    -0.71813,
                    -2.0109,
                    -0.43757
                ],
                [
                    -0.58388,
                    -1.0113,
                    -0.92147
                ]
            ],
            [
                [
                    -1.18075,
                    -0.71883,
                    -0.25284
                ],
                [
                    -0.71811,
                    -2.00951,
                    -0.43711
                ],
                [
                    -0.58385,
                    -1.01126,
                    -0.92174
                ]
            ],
            [
                [
                    -1.18075,
                    -0.71883,
                    0.25284
                ],
                [
                    -0.71811,
                    -2.00951,
                    0.43711
                ],
                [
                    0.58388,
                    1.0113,
                    -0.92147
                ]
            ],
            [
                [
                    -1.18113,
                    -0.71753,
                    0.25214
                ],
                [
                    -0.71813,
                    -2.0109,
                    0.43757
                ],
                [
                    0.58385,
                    1.01126,
                    -0.92174
                ]
            ]
        ]
    },
    "band_gap": 1.8623000000000003,
    "is_direct": false,
    "formula": "Na2ReO3"
}