{
    "mp_id": "mp-1190949",
    "nelements": 4,
    "nsites": 24,
    "elements": [
        "Ba",
        "Ge",
        "O",
        "Zn"
    ],
    "structure": {
        "@module": "pymatgen.core.structure",
        "@class": "Structure",
        "charge": null,
        "lattice": {
            "matrix": [
                [
                    8.33544388,
                    0.0,
                    0.0
                ],
                [
                    0.0,
                    8.33544388,
                    0.0
                ],
                [
                    0.0,
                    0.0,
                    5.59524201
                ]
            ],
            "a": 8.33544388,
            "b": 8.33544388,
            "c": 5.59524201,
            "alpha": 90.0,
            "beta": 90.0,
            "gamma": 90.0,
            "volume": 388.7553148297098
        },
        "sites": [
            {
                "species": [
                    {
                        "element": "Ba",
                        "occu": 1
                    }
                ],
                "abc": [
                    0.83509869,
                    0.33509869,
                    0.50818437
                ],
                "xyz": [
                    6.9609182647565175,
                    2.793196324756517,
                    2.843414535849384
                ],
                "label": "Ba",
                "properties": {}
            },
            {
                "species": [
                    {
                        "element": "Ba",
                        "occu": 1
                    }
                ],
                "abc": [
                    0.33509869,
                    0.16490131,
                    0.49181563
                ],
                "xyz": [
                    2.793196324756517,
                    1.3745256152434826,
                    2.751827474150616
                ],
                "label": "Ba",
                "properties": {}
            },
            {
                "species": [
                    {
                        "element": "Ba",
                        "occu": 1
                    }
                ],
                "abc": [
                    0.16490131,
                    0.66490131,
                    0.50818437
                ],
                "xyz": [
                    1.3745256152434826,
                    5.542247555243482,
                    2.843414535849384
                ],
                "label": "Ba",
                "properties": {}
            },
            {
                "species": [
                    {
                        "element": "Ba",
                        "occu": 1
                    }
                ],
                "abc": [
                    0.66490131,
                    0.83509869,
                    0.49181563
                ],
                "xyz": [
                    5.542247555243482,
                    6.9609182647565175,
                    2.751827474150616
                ],
                "label": "Ba",
                "properties": {}
            },
            {
                "species": [
                    {
                        "element": "Zn",
                        "occu": 1
                    }
                ],
                "abc": [
                    0.5,
                    0.5,
                    0.0
                ],
                "xyz": [
                    4.16772194,
                    4.16772194,
                    0.0
                ],
                "label": "Zn",
                "properties": {}
            },
            {
                "species": [
                    {
                        "element": "Zn",
                        "occu": 1
                    }
                ],
                "abc": [
                    0.0,
                    0.0,
                    0.0
                ],
                "xyz": [
                    0.0,
                    0.0,
                    0.0
                ],
                "label": "Zn",
                "properties": {}
            },
            {
                "species": [
                    {
                        "element": "Ge",
                        "occu": 1
                    }
                ],
                "abc": [
                    0.64286414,
                    0.14286414,
                    0.963479
                ],
                "xyz": [
                    5.358557961434463,
                    1.190836021434463,
                    5.390898176552789
                ],
                "label": "Ge",
                "properties": {}
            },
            {
                "species": [
                    {
                        "element": "Ge",
                        "occu": 1
                    }
                ],
                "abc": [
                    0.14286414,
                    0.35713586,
                    0.036521
                ],
                "xyz": [
                    1.190836021434463,
                    2.9768859185655367,
                    0.20434383344720997
                ],
                "label": "Ge",
                "properties": {}
            },
            {
                "species": [
                    {
                        "element": "Ge",
                        "occu": 1
                    }
                ],
                "abc": [
                    0.35713586,
                    0.85713586,
                    0.963479
                ],
                "xyz": [
                    2.9768859185655367,
                    7.144607858565537,
                    5.390898176552789
                ],
                "label": "Ge",
                "properties": {}
            },
            {
                "species": [
                    {
                        "element": "Ge",
                        "occu": 1
                    }
                ],
                "abc": [
                    0.85713586,
                    0.64286414,
                    0.036521
                ],
                "xyz": [
                    7.144607858565537,
                    5.358557961434463,
                    0.20434383344720997
                ],
                "label": "Ge",
                "properties": {}
            },
            {
                "species": [
                    {
                        "element": "O",
                        "occu": 1
                    }
                ],
                "abc": [
                    0.0,
                    0.5,
                    0.16394747
                ],
                "xyz": [
                    0.0,
                    4.16772194,
                    0.9173257715772147
                ],
                "label": "O",
                "properties": {}
            },
            {
                "species": [
                    {
                        "element": "O",
                        "occu": 1
                    }
                ],
                "abc": [
                    0.5,
                    0.0,
                    0.83605253
                ],
                "xyz": [
                    4.16772194,
                    0.0,
                    4.677916238422785
                ],
                "label": "O",
                "properties": {}
            },
            {
                "species": [
                    {
                        "element": "O",
                        "occu": 1
                    }
                ],
                "abc": [
                    0.63772426,
                    0.13772426,
                    0.27706808
                ],
                "xyz": [
                    5.315714780144529,
                    1.1479928401445287,
                    1.5502629608460408
                ],
                "label": "O",
                "properties": {}
            },
            {
                "species": [
                    {
                        "element": "O",
                        "occu": 1
                    }
                ],
                "abc": [
                    0.13772426,
                    0.36227574,
                    0.72293192
                ],
                "xyz": [
                    1.1479928401445287,
                    3.0197290998554713,
                    4.044979049153959
                ],
                "label": "O",
                "properties": {}
            },
            {
                "species": [
                    {
                        "element": "O",
                        "occu": 1
                    }
                ],
                "abc": [
                    0.36227574,
                    0.86227574,
                    0.27706808
                ],
                "xyz": [
                    3.0197290998554713,
                    7.18745103985547,
                    1.5502629608460408
                ],
                "label": "O",
                "properties": {}
            },
            {
                "species": [
                    {
                        "element": "O",
                        "occu": 1
                    }
                ],
                "abc": [
                    0.86227574,
                    0.63772426,
                    0.72293192
                ],
                "xyz": [
                    7.18745103985547,
                    5.315714780144529,
                    4.044979049153959
                ],
                "label": "O",
                "properties": {}
            },
            {
                "species": [
                    {
                        "element": "O",
                        "occu": 1
                    }
                ],
                "abc": [
                    0.57991537,
                    0.3220695,
                    0.81319507
                ],
                "xyz": [
                    4.833852021784436,
                    2.68459224270966,
                    4.55002321798889
                ],
                "label": "O",
                "properties": {}
            },
            {
                "species": [
                    {
                        "element": "O",
                        "occu": 1
                    }
                ],
                "abc": [
                    0.07991537,
                    0.1779305,
                    0.18680493
                ],
                "xyz": [
                    0.6661300817844356,
                    1.4831296972903398,
                    1.0452187920111093
                ],
                "label": "O",
                "properties": {}
            },
            {
                "species": [
                    {
                        "element": "O",
                        "occu": 1
                    }
                ],
                "abc": [
                    0.42008463,
                    0.6779305,
                    0.81319507
                ],
                "xyz": [
                    3.5015918582155643,
                    5.65085163729034,
                    4.55002321798889
                ],
                "label": "O",
                "properties": {}
            },
            {
                "species": [
                    {
                        "element": "O",
                        "occu": 1
                    }
                ],
                "abc": [
                    0.92008463,
                    0.8220695,
                    0.18680493
                ],
                "xyz": [
                    7.669313798215564,
                    6.85231418270966,
                    1.0452187920111093
                ],
                "label": "O",
                "properties": {}
            },
            {
                "species": [
                    {
                        "element": "O",
                        "occu": 1
                    }
                ],
                "abc": [
                    0.6779305,
                    0.57991537,
                    0.18680493
                ],
                "xyz": [
                    5.65085163729034,
                    4.833852021784436,
                    1.0452187920111093
                ],
                "label": "O",
                "properties": {}
            },
            {
                "species": [
                    {
                        "element": "O",
                        "occu": 1
                    }
                ],
                "abc": [
                    0.1779305,
                    0.92008463,
                    0.81319507
                ],
                "xyz": [
                    1.4831296972903398,
                    7.669313798215564,
                    4.55002321798889
                ],
                "label": "O",
                "properties": {}
            },
            {
                "species": [
                    {
                        "element": "O",
                        "occu": 1
                    }
                ],
                "abc": [
                    0.3220695,
                    0.42008463,
                    0.18680493
                ],
                "xyz": [
                    2.68459224270966,
                    3.5015918582155643,
                    1.0452187920111093
                ],
                "label": "O",
                "properties": {}
            },
            {
                "species": [
                    {
                        "element": "O",
                        "occu": 1
                    }
                ],
                "abc": [
                    0.8220695,
                    0.07991537,
                    0.81319507
                ],
                "xyz": [
                    6.85231418270966,
                    0.6661300817844356,
                    4.55002321798889
                ],
                "label": "O",
                "properties": {}
            }
        ]
    },
    "spacegroup": {
        "source": "spglib",
        "symbol": "P-42_1m",
        "number": 113,
        "point_group": "-42m",
        "crystal_system": "tetragonal",
        "hall": "P -4 2ab"
    },
    "dielectric": {
        "epsilon_ionic": [
            [
                6.1536663,
                -0.0,
                0.0
            ],
            [
                -0.0,
                6.15366705,
                0.0
            ],
            [
                0.0,
                0.0,
                4.81764331
            ]
        ],
        "epsilon_ionic_avg": 5.708325553333334,
        "epsilon_ionic_eig": [
            6.1536663,
            6.15366705,
            4.81764331
        ],
        "epsilon_electronic": [
            [
                3.35428533,
                0.0,
                0.0
            ],
            [
                -0.0,
                3.35428533,
                -0.0
            ],
            [
                0.0,
                0.0,
                3.41906967
            ]
        ],
        "epsilon_electronic_avg": 3.37588011,
        "epsilon_electronic_eig": [
            3.35428533,
            3.35428533,
            3.41906967
        ]
    },
    "phonon": {
        "lowest_freq": -0.059161148775398575,
        "frequency": [
            -0.059161148775398575,
            -0.059161148775398575,
            -0.04580399909743077,
            1.6432480976147077,
            1.9857661492341112,
            1.9857661492341112,
            2.622399062921359,
            2.696108684177552,
            2.696108684177552,
            2.7549237703823954,
            3.1166951460147536,
            3.1166951460147536,
            3.1511934382560147,
            3.2990941320233294,
            3.2990941320233294,
            3.4255987390712956,
            3.6774562049271218,
            3.786064947975571,
            4.03338065758308,
            4.45986019649449,
            4.498368440376685,
            4.607944970438814,
            4.607944970438814,
            4.790888328605452,
            4.790888328605452,
            5.105018970082678,
            5.4610636678464575,
            5.4610636678464575,
            6.216932928293942,
            6.225432782238977,
            6.2457433006794805,
            6.2457433006794805,
            6.7586970001219555,
            6.778754077429349,
            7.078225753008663,
            7.300047781708403,
            7.300047781708403,
            7.8909624490475485,
            7.8909624490475485,
            8.239157662870998,
            8.510790945186528,
            8.680966209281156,
            8.778016855089039,
            8.778016855089039,
            10.281095762154543,
            11.100058903942136,
            11.433304182052199,
            11.433304182052199,
            11.611226003817366,
            12.120289583192937,
            12.120289583192937,
            12.561422129826491,
            13.140295339259987,
            13.267405485775857,
            13.618502062605813,
            13.618502062605813,
            14.536903906499896,
            14.816631939930923,
            20.311945547614812,
            20.311945547614812,
            20.52121016997302,
            20.52121016997302,
            20.92328433771666,
            22.231043017375843,
            22.369042137339488,
            22.369042137339488,
            22.374127255480108,
            22.479902085455713,
            22.65485367284167,
            22.900751061867158,
            24.584206111073104,
            24.584206111073104
        ]
    },
    "born_effective_charge": {
        "avg_abs_trace": 2.2302772222222225,
        "tensors": [
            [
                [
                    2.51889,
                    0.39656,
                    -0.12597
                ],
                [
                    0.39655,
                    2.51888,
                    -0.12598
                ],
                [
                    0.02279,
                    0.02279,
                    2.88116
                ]
            ],
            [
                [
                    2.51889,
                    -0.39656,
                    0.12597
                ],
                [
                    -0.39654,
                    2.51885,
                    -0.12608
                ],
                [
                    -0.02272,
                    0.02272,
                    2.88104
                ]
            ],
            [
                [
                    2.51885,
                    0.39653,
                    0.12609
                ],
                [
                    0.39654,
                    2.51885,
                    0.12608
                ],
                [
                    -0.02279,
                    -0.02279,
                    2.88116
                ]
            ],
            [
                [
                    2.51885,
                    -0.39653,
                    -0.12609
                ],
                [
                    -0.39655,
                    2.51888,
                    0.12598
                ],
                [
                    0.02272,
                    -0.02272,
                    2.88104
                ]
            ],
            [
                [
                    2.37764,
                    0.03471,
                    1e-05
                ],
                [
                    -0.03471,
                    2.37764,
                    -1e-05
                ],
                [
                    0.0,
                    0.0,
                    1.40707
                ]
            ],
            [
                [
                    2.37764,
                    -0.03471,
                    -1e-05
                ],
                [
                    0.03471,
                    2.37764,
                    1e-05
                ],
                [
                    0.0,
                    0.0,
                    1.40707
                ]
            ],
            [
                [
                    2.99903,
                    0.08358,
                    0.04105
                ],
                [
                    0.08358,
                    2.99903,
                    0.04104
                ],
                [
                    -0.02562,
                    -0.02562,
                    3.07454
                ]
            ],
            [
                [
                    2.99903,
                    -0.08358,
                    -0.04105
                ],
                [
                    -0.08351,
                    2.99903,
                    0.04101
                ],
                [
                    0.02574,
                    -0.02574,
                    3.0743
                ]
            ],
            [
                [
                    2.99903,
                    0.0835,
                    -0.04101
                ],
                [
                    0.08351,
                    2.99903,
                    -0.04101
                ],
                [
                    0.02562,
                    0.02562,
                    3.07454
                ]
            ],
            [
                [
                    2.99903,
                    -0.0835,
                    0.04101
                ],
                [
                    -0.08358,
                    2.99903,
                    -0.04104
                ],
                [
                    -0.02574,
                    0.02574,
                    3.0743
                ]
            ],
            [
                [
                    -2.24215,
                    0.85534,
                    -5e-05
                ],
                [
                    0.85533,
                    -2.24215,
                    -5e-05
                ],
                [
                    0.0,
                    0.0,
                    -1.76693
                ]
            ],
            [
                [
                    -2.24215,
                    -0.85534,
                    5e-05
                ],
                [
                    -0.85533,
                    -2.24215,
                    5e-05
                ],
                [
                    0.0,
                    0.0,
                    -1.76703
                ]
            ],
            [
                [
                    -1.6148,
                    -0.14317,
                    -0.04358
                ],
                [
                    -0.14317,
                    -1.61481,
                    -0.04358
                ],
                [
                    0.00661,
                    0.00661,
                    -2.42622
                ]
            ],
            [
                [
                    -1.6148,
                    0.14317,
                    0.04358
                ],
                [
                    0.14324,
                    -1.61477,
                    -0.04359
                ],
                [
                    -0.00667,
                    0.00667,
                    -2.42639
                ]
            ],
            [
                [
                    -1.61478,
                    -0.14324,
                    0.04359
                ],
                [
                    -0.14324,
                    -1.61477,
                    0.04359
                ],
                [
                    -0.00661,
                    -0.00661,
                    -2.42622
                ]
            ],
            [
                [
                    -1.61478,
                    0.14324,
                    -0.04359
                ],
                [
                    0.14317,
                    -1.61481,
                    0.04358
                ],
                [
                    0.00667,
                    -0.00667,
                    -2.42639
                ]
            ],
            [
                [
                    -1.71696,
                    0.20685,
                    0.11902
                ],
                [
                    0.29502,
                    -2.25386,
                    0.10721
                ],
                [
                    0.11047,
                    -0.00177,
                    -1.67469
                ]
            ],
            [
                [
                    -1.71696,
                    -0.20685,
                    -0.11902
                ],
                [
                    -0.29513,
                    -2.25389,
                    0.1074
                ],
                [
                    -0.11062,
                    -0.00196,
                    -1.67458
                ]
            ],
            [
                [
                    -1.717,
                    0.2068,
                    -0.11902
                ],
                [
                    0.29513,
                    -2.25389,
                    -0.1074
                ],
                [
                    -0.11047,
                    0.00177,
                    -1.67469
                ]
            ],
            [
                [
                    -1.717,
                    -0.2068,
                    0.11902
                ],
                [
                    -0.29502,
                    -2.25386,
                    -0.10721
                ],
                [
                    0.11062,
                    0.00196,
                    -1.67458
                ]
            ],
            [
                [
                    -2.25389,
                    -0.29512,
                    0.1074
                ],
                [
                    -0.20685,
                    -1.71696,
                    -0.11902
                ],
                [
                    -0.00196,
                    -0.11062,
                    -1.67458
                ]
            ],
            [
                [
                    -2.25389,
                    0.29512,
                    -0.1074
                ],
                [
                    0.20679,
                    -1.71699,
                    -0.11902
                ],
                [
                    0.00177,
                    -0.11047,
                    -1.67469
                ]
            ],
            [
                [
                    -2.25386,
                    -0.29502,
                    -0.10721
                ],
                [
                    -0.20679,
                    -1.71699,
                    0.11902
                ],
                [
                    0.00196,
                    0.11062,
                    -1.67458
                ]
            ],
            [
                [
                    -2.25386,
                    0.29502,
                    0.10721
                ],
                [
                    0.20685,
                    -1.71696,
                    0.11902
                ],
                [
                    -0.00177,
                    0.11047,
                    -1.67469
                ]
            ]
        ]
    },
    "band_gap": 3.2461,
    "is_direct": false,
    "formula": "Ba2ZnGe2O7"
}