{
    "mp_id": "mp-1227121",
    "nelements": 4,
    "nsites": 12,
    "elements": [
        "Ca",
        "Nb",
        "O",
        "Th"
    ],
    "structure": {
        "@module": "pymatgen.core.structure",
        "@class": "Structure",
        "charge": null,
        "lattice": {
            "matrix": [
                [
                    3.59951962,
                    -5.65422498,
                    0.00054949
                ],
                [
                    3.59951962,
                    5.65422498,
                    0.00054949
                ],
                [
                    -3.31218061,
                    0.0,
                    3.9920803
                ]
            ],
            "a": 6.702745849363543,
            "b": 6.702745849363543,
            "c": 5.187219439633151,
            "alpha": 110.04998646703257,
            "beta": 110.04998646703257,
            "gamma": 115.03776169054389,
            "volume": 162.51816021511394
        },
        "sites": [
            {
                "species": [
                    {
                        "element": "Ca",
                        "occu": 1
                    }
                ],
                "abc": [
                    0.63332165,
                    0.36667835,
                    0.0
                ],
                "xyz": [
                    3.5995196199999997,
                    -1.507661207609634,
                    0.0005494899999999999
                ],
                "label": "Ca",
                "properties": {}
            },
            {
                "species": [
                    {
                        "element": "Th",
                        "occu": 1
                    }
                ],
                "abc": [
                    0.36739413,
                    0.63260587,
                    0.5
                ],
                "xyz": [
                    1.9434293150000002,
                    1.4995668452972657,
                    1.99658964
                ],
                "label": "Th",
                "properties": {}
            },
            {
                "species": [
                    {
                        "element": "Nb",
                        "occu": 1
                    }
                ],
                "abc": [
                    0.09792016,
                    0.90207984,
                    0.0
                ],
                "xyz": [
                    3.5995196199999997,
                    4.5468997505648066,
                    0.00054949
                ],
                "label": "Nb",
                "properties": {}
            },
            {
                "species": [
                    {
                        "element": "Nb",
                        "occu": 1
                    }
                ],
                "abc": [
                    0.90417753,
                    0.09582247,
                    0.5
                ],
                "xyz": [
                    1.9434293150000002,
                    -4.5706213729614,
                    1.99658964
                ],
                "label": "Nb",
                "properties": {}
            },
            {
                "species": [
                    {
                        "element": "O",
                        "occu": 1
                    }
                ],
                "abc": [
                    0.26305271,
                    0.20303195,
                    0.45850819
                ],
                "xyz": [
                    0.1590189418068335,
                    -0.33937088051058506,
                    1.8306576215474804
                ],
                "label": "O",
                "properties": {}
            },
            {
                "species": [
                    {
                        "element": "O",
                        "occu": 1
                    }
                ],
                "abc": [
                    0.20584284,
                    0.26546528,
                    0.95745029
                ],
                "xyz": [
                    -1.4747654605715625,
                    0.33711868961655145,
                    3.822477420037146
                ],
                "label": "O",
                "properties": {}
            },
            {
                "species": [
                    {
                        "element": "O",
                        "occu": 1
                    }
                ],
                "abc": [
                    0.73453472,
                    0.79415716,
                    0.04254971
                ],
                "xyz": [
                    5.361624090571563,
                    0.33711868961655167,
                    0.1707018599628542
                ],
                "label": "O",
                "properties": {}
            },
            {
                "species": [
                    {
                        "element": "O",
                        "occu": 1
                    }
                ],
                "abc": [
                    0.79696805,
                    0.73694729,
                    0.54149181
                ],
                "xyz": [
                    3.7278396881931672,
                    -0.33937088051058506,
                    2.1625216584525195
                ],
                "label": "O",
                "properties": {}
            },
            {
                "species": [
                    {
                        "element": "O",
                        "occu": 1
                    }
                ],
                "abc": [
                    0.36109402,
                    0.94689113,
                    0.91373727
                ],
                "xyz": [
                    1.6816553417653077,
                    3.3122286525738085,
                    3.6484312797028546
                ],
                "label": "O",
                "properties": {}
            },
            {
                "species": [
                    {
                        "element": "O",
                        "occu": 1
                    }
                ],
                "abc": [
                    0.93865316,
                    0.35606785,
                    0.40905949
                ],
                "xyz": [
                    3.305494766806727,
                    -3.2940684127830435,
                    1.633709767804832
                ],
                "label": "O",
                "properties": {}
            },
            {
                "species": [
                    {
                        "element": "O",
                        "occu": 1
                    }
                ],
                "abc": [
                    0.64393215,
                    0.06134684,
                    0.59094051
                ],
                "xyz": [
                    0.5813638631932727,
                    -3.2940684127830444,
                    2.3594695121951683
                ],
                "label": "O",
                "properties": {}
            },
            {
                "species": [
                    {
                        "element": "O",
                        "occu": 1
                    }
                ],
                "abc": [
                    0.05310887,
                    0.63890598,
                    0.08626273
                ],
                "xyz": [
                    2.2052032882346917,
                    3.312228652573808,
                    0.34474800029714553
                ],
                "label": "O",
                "properties": {}
            }
        ]
    },
    "spacegroup": {
        "source": "spglib",
        "symbol": "C2",
        "number": 5,
        "point_group": "2",
        "crystal_system": "monoclinic",
        "hall": "C 2y"
    },
    "dielectric": {
        "epsilon_ionic": [
            [
                20.04066882,
                -0.00019181,
                -7.53964546
            ],
            [
                -0.00019181,
                10.3870353,
                0.00015035
            ],
            [
                -7.53964546,
                0.00015035,
                16.06679442
            ]
        ],
        "epsilon_ionic_avg": 15.498166179999998,
        "epsilon_ionic_eig": [
            25.85079344860796,
            10.256669795201734,
            10.387035296190303
        ],
        "epsilon_electronic": [
            [
                5.06269744,
                0.0,
                -0.35933986
            ],
            [
                0.0,
                4.74751782,
                0.0
            ],
            [
                -0.35935238,
                0.0,
                4.87101138
            ]
        ],
        "epsilon_electronic_avg": 4.893742213333333,
        "epsilon_electronic_eig": [
            5.338762356028917,
            4.594946463971083,
            4.74751782
        ]
    },
    "phonon": {
        "lowest_freq": -0.03441417991076047,
        "frequency": [
            -0.03441417991076047,
            -0.011272618296890226,
            -0.008283508846865566,
            3.73773256627392,
            3.806058231529476,
            4.2401008853866,
            4.867059891963599,
            5.01067886104589,
            5.187040128324086,
            5.755879737115504,
            6.191085565039876,
            6.240836989558303,
            6.501877559086436,
            6.576087954128782,
            7.092181789216882,
            7.287914258664434,
            8.465467590754937,
            8.530093881496969,
            9.34401568627916,
            9.795947837511418,
            10.118772279557387,
            10.491778562245537,
            11.394320220811478,
            11.841710344476647,
            12.179583065558562,
            12.714657080096558,
            13.393677595160986,
            15.002789159166975,
            16.03469064405306,
            17.498841393658463,
            18.333133395569018,
            18.47216066580464,
            18.758104029456746,
            19.483636328257376,
            22.056443399567282,
            23.018698690630764
        ]
    },
    "born_effective_charge": {
        "avg_abs_trace": 3.3341141666666663,
        "tensors": [
            [
                [
                    2.87633,
                    2e-05,
                    0.02469
                ],
                [
                    0.0,
                    2.59742,
                    0.0
                ],
                [
                    0.29837,
                    6e-05,
                    2.72992
                ]
            ],
            [
                [
                    6.44675,
                    -0.00015,
                    0.10291
                ],
                [
                    0.0,
                    5.43549,
                    0.0
                ],
                [
                    0.75906,
                    2e-05,
                    6.06187
                ]
            ],
            [
                [
                    5.47216,
                    -0.00016,
                    -0.7907
                ],
                [
                    0.0,
                    6.20462,
                    0.0
                ],
                [
                    -1.7403,
                    8e-05,
                    5.15726
                ]
            ],
            [
                [
                    6.22651,
                    0.00012,
                    -1.32838
                ],
                [
                    0.0,
                    4.97373,
                    0.0
                ],
                [
                    -1.43459,
                    -7e-05,
                    5.83197
                ]
            ],
            [
                [
                    -2.12286,
                    0.10503,
                    0.04586
                ],
                [
                    -0.01343,
                    -2.21702,
                    -0.91028
                ],
                [
                    0.07048,
                    -0.89497,
                    -2.99336
                ]
            ],
            [
                [
                    -1.77469,
                    -0.45666,
                    0.09825
                ],
                [
                    -0.39964,
                    -1.98264,
                    0.2636
                ],
                [
                    0.03835,
                    0.37204,
                    -3.91681
                ]
            ],
            [
                [
                    -1.7745,
                    0.45696,
                    0.09826
                ],
                [
                    0.39964,
                    -1.98264,
                    -0.2636
                ],
                [
                    0.03836,
                    -0.3723,
                    -3.91703
                ]
            ],
            [
                [
                    -2.12268,
                    -0.10534,
                    0.04585
                ],
                [
                    0.01343,
                    -2.21702,
                    0.91028
                ],
                [
                    0.07029,
                    0.89538,
                    -2.99339
                ]
            ],
            [
                [
                    -2.76365,
                    1.28066,
                    0.55032
                ],
                [
                    1.31734,
                    -3.13319,
                    -0.94869
                ],
                [
                    0.65162,
                    -0.90031,
                    -1.67553
                ]
            ],
            [
                [
                    -3.84969,
                    -0.96199,
                    0.30135
                ],
                [
                    -0.8843,
                    -2.27279,
                    0.39403
                ],
                [
                    0.29827,
                    0.25788,
                    -1.3046
                ]
            ],
            [
                [
                    -3.84989,
                    0.96196,
                    0.30133
                ],
                [
                    0.8843,
                    -2.27279,
                    -0.39403
                ],
                [
                    0.29831,
                    -0.25814,
                    -1.30472
                ]
            ],
            [
                [
                    -2.7638,
                    -1.28045,
                    0.55027
                ],
                [
                    -1.31734,
                    -3.13319,
                    0.94869
                ],
                [
                    0.65178,
                    0.90033,
                    -1.6756
                ]
            ]
        ]
    },
    "band_gap": 3.5193000000000003,
    "is_direct": false,
    "formula": "CaThNb2O8"
}