{
    "mp_id": "mp-13801",
    "nelements": 3,
    "nsites": 22,
    "elements": [
        "O",
        "Pt",
        "Tl"
    ],
    "structure": {
        "@module": "pymatgen.core.structure",
        "@class": "Structure",
        "charge": null,
        "lattice": {
            "matrix": [
                [
                    0.0,
                    5.07053554,
                    5.07053554
                ],
                [
                    5.07053554,
                    0.0,
                    5.07053554
                ],
                [
                    5.07053554,
                    5.07053554,
                    0.0
                ]
            ],
            "a": 7.170820129162785,
            "b": 7.170820129162785,
            "c": 7.170820129162785,
            "alpha": 60.00000000000001,
            "beta": 60.00000000000001,
            "gamma": 60.00000000000001,
            "volume": 260.73029073773324
        },
        "sites": [
            {
                "species": [
                    {
                        "element": "Tl",
                        "occu": 1
                    }
                ],
                "abc": [
                    0.125,
                    0.125,
                    0.125
                ],
                "xyz": [
                    1.267633885,
                    1.267633885,
                    1.267633885
                ],
                "label": "Tl",
                "properties": {}
            },
            {
                "species": [
                    {
                        "element": "Tl",
                        "occu": 1
                    }
                ],
                "abc": [
                    0.625,
                    0.125,
                    0.125
                ],
                "xyz": [
                    1.267633885,
                    3.8029016550000003,
                    3.8029016550000003
                ],
                "label": "Tl",
                "properties": {}
            },
            {
                "species": [
                    {
                        "element": "Tl",
                        "occu": 1
                    }
                ],
                "abc": [
                    0.125,
                    0.125,
                    0.625
                ],
                "xyz": [
                    3.8029016550000003,
                    3.8029016550000003,
                    1.267633885
                ],
                "label": "Tl",
                "properties": {}
            },
            {
                "species": [
                    {
                        "element": "Tl",
                        "occu": 1
                    }
                ],
                "abc": [
                    0.125,
                    0.625,
                    0.125
                ],
                "xyz": [
                    3.8029016550000003,
                    1.267633885,
                    3.8029016550000003
                ],
                "label": "Tl",
                "properties": {}
            },
            {
                "species": [
                    {
                        "element": "Pt",
                        "occu": 1
                    }
                ],
                "abc": [
                    0.625,
                    0.625,
                    0.625
                ],
                "xyz": [
                    6.338169425,
                    6.338169425,
                    6.338169425
                ],
                "label": "Pt",
                "properties": {}
            },
            {
                "species": [
                    {
                        "element": "Pt",
                        "occu": 1
                    }
                ],
                "abc": [
                    0.125,
                    0.625,
                    0.625
                ],
                "xyz": [
                    6.338169425,
                    3.8029016550000003,
                    3.8029016550000003
                ],
                "label": "Pt",
                "properties": {}
            },
            {
                "species": [
                    {
                        "element": "Pt",
                        "occu": 1
                    }
                ],
                "abc": [
                    0.625,
                    0.625,
                    0.125
                ],
                "xyz": [
                    3.8029016550000003,
                    3.8029016550000003,
                    6.338169425
                ],
                "label": "Pt",
                "properties": {}
            },
            {
                "species": [
                    {
                        "element": "Pt",
                        "occu": 1
                    }
                ],
                "abc": [
                    0.625,
                    0.125,
                    0.625
                ],
                "xyz": [
                    3.8029016550000003,
                    6.338169425,
                    3.8029016550000003
                ],
                "label": "Pt",
                "properties": {}
            },
            {
                "species": [
                    {
                        "element": "O",
                        "occu": 1
                    }
                ],
                "abc": [
                    0.95924357,
                    0.95924357,
                    0.54075643
                ],
                "xyz": [
                    7.60580331,
                    7.60580331,
                    9.727757226402955
                ],
                "label": "O",
                "properties": {}
            },
            {
                "species": [
                    {
                        "element": "O",
                        "occu": 1
                    }
                ],
                "abc": [
                    0.70924357,
                    0.70924357,
                    0.29075643
                ],
                "xyz": [
                    5.07053554,
                    5.07053554,
                    7.192489456402956
                ],
                "label": "O",
                "properties": {}
            },
            {
                "species": [
                    {
                        "element": "O",
                        "occu": 1
                    }
                ],
                "abc": [
                    0.54075643,
                    0.95924357,
                    0.54075643
                ],
                "xyz": [
                    7.60580331,
                    5.483849393597044,
                    7.60580331
                ],
                "label": "O",
                "properties": {}
            },
            {
                "species": [
                    {
                        "element": "O",
                        "occu": 1
                    }
                ],
                "abc": [
                    0.54075643,
                    0.95924357,
                    0.95924357
                ],
                "xyz": [
                    9.727757226402955,
                    7.60580331,
                    7.60580331
                ],
                "label": "O",
                "properties": {}
            },
            {
                "species": [
                    {
                        "element": "O",
                        "occu": 1
                    }
                ],
                "abc": [
                    0.95924357,
                    0.54075643,
                    0.54075643
                ],
                "xyz": [
                    5.483849393597044,
                    7.60580331,
                    7.60580331
                ],
                "label": "O",
                "properties": {}
            },
            {
                "species": [
                    {
                        "element": "O",
                        "occu": 1
                    }
                ],
                "abc": [
                    0.95924357,
                    0.54075643,
                    0.95924357
                ],
                "xyz": [
                    7.60580331,
                    9.727757226402955,
                    7.60580331
                ],
                "label": "O",
                "properties": {}
            },
            {
                "species": [
                    {
                        "element": "O",
                        "occu": 1
                    }
                ],
                "abc": [
                    0.70924357,
                    0.29075643,
                    0.70924357
                ],
                "xyz": [
                    5.07053554,
                    7.192489456402956,
                    5.07053554
                ],
                "label": "O",
                "properties": {}
            },
            {
                "species": [
                    {
                        "element": "O",
                        "occu": 1
                    }
                ],
                "abc": [
                    0.29075643,
                    0.70924357,
                    0.29075643
                ],
                "xyz": [
                    5.07053554,
                    2.9485816235970446,
                    5.07053554
                ],
                "label": "O",
                "properties": {}
            },
            {
                "species": [
                    {
                        "element": "O",
                        "occu": 1
                    }
                ],
                "abc": [
                    0.25,
                    0.25,
                    0.25
                ],
                "xyz": [
                    2.53526777,
                    2.53526777,
                    2.53526777
                ],
                "label": "O",
                "properties": {}
            },
            {
                "species": [
                    {
                        "element": "O",
                        "occu": 1
                    }
                ],
                "abc": [
                    0.0,
                    0.0,
                    0.0
                ],
                "xyz": [
                    0.0,
                    0.0,
                    0.0
                ],
                "label": "O",
                "properties": {}
            },
            {
                "species": [
                    {
                        "element": "O",
                        "occu": 1
                    }
                ],
                "abc": [
                    0.54075643,
                    0.54075643,
                    0.95924357
                ],
                "xyz": [
                    7.60580331,
                    7.60580331,
                    5.483849393597044
                ],
                "label": "O",
                "properties": {}
            },
            {
                "species": [
                    {
                        "element": "O",
                        "occu": 1
                    }
                ],
                "abc": [
                    0.29075643,
                    0.70924357,
                    0.70924357
                ],
                "xyz": [
                    7.192489456402956,
                    5.07053554,
                    5.07053554
                ],
                "label": "O",
                "properties": {}
            },
            {
                "species": [
                    {
                        "element": "O",
                        "occu": 1
                    }
                ],
                "abc": [
                    0.70924357,
                    0.29075643,
                    0.29075643
                ],
                "xyz": [
                    2.9485816235970446,
                    5.07053554,
                    5.07053554
                ],
                "label": "O",
                "properties": {}
            },
            {
                "species": [
                    {
                        "element": "O",
                        "occu": 1
                    }
                ],
                "abc": [
                    0.29075643,
                    0.29075643,
                    0.70924357
                ],
                "xyz": [
                    5.07053554,
                    5.07053554,
                    2.9485816235970446
                ],
                "label": "O",
                "properties": {}
            }
        ]
    },
    "spacegroup": {
        "source": "spglib",
        "symbol": "Fd-3m",
        "number": 227,
        "point_group": "m-3m",
        "crystal_system": "cubic",
        "hall": "F 4d 2 3 -1d"
    },
    "dielectric": {
        "epsilon_ionic": [
            [
                6.59625502,
                0.0,
                -0.0
            ],
            [
                0.0,
                6.5962006,
                0.0
            ],
            [
                -0.0,
                0.0,
                6.59597586
            ]
        ],
        "epsilon_ionic_avg": 6.596143826666666,
        "epsilon_ionic_eig": [
            6.59625502,
            6.5962006,
            6.59597586
        ],
        "epsilon_electronic": [
            [
                8.71365603,
                0.0,
                -0.0
            ],
            [
                -0.0,
                8.71365603,
                0.0
            ],
            [
                0.0,
                0.0,
                8.71365603
            ]
        ],
        "epsilon_electronic_avg": 8.71365603,
        "epsilon_electronic_eig": [
            8.71365603,
            8.71365603,
            8.71365603
        ]
    },
    "phonon": {
        "lowest_freq": -0.025669123771908973,
        "frequency": [
            -0.025669123771908973,
            -0.025669123771908973,
            -0.025669123771908973,
            1.9408590051167705,
            1.9408590051167705,
            1.9408590051167705,
            2.5619409963043376,
            2.5619409963043376,
            2.861181536994045,
            2.861181536994045,
            2.861181536994045,
            3.249981310240235,
            3.249981310240235,
            3.249981310240235,
            5.44093731210749,
            5.44093731210749,
            5.44093731210749,
            5.969532694781149,
            5.99169605879804,
            5.99169605879804,
            6.1280689750192305,
            6.1280689750192305,
            6.1280689750192305,
            7.189127340880997,
            7.189127340880997,
            7.189127340880997,
            7.251676633325627,
            9.205702995718342,
            9.205702995718342,
            9.205702995718342,
            10.722207724206353,
            10.722207724206353,
            10.722207724206353,
            11.357043205779236,
            11.357043205779236,
            11.357043205779236,
            11.428759284413083,
            11.428759284413083,
            11.428759284413083,
            12.978756285566385,
            12.978756285566385,
            13.11980433671262,
            13.11980433671262,
            13.11980433671262,
            13.978916455970833,
            13.978916455970833,
            13.978916455970833,
            14.183127383350294,
            15.755184282401393,
            16.76044674241493,
            16.76044674241493,
            16.76044674241493,
            17.053051612943143,
            17.053051612943143,
            19.56244303614607,
            19.56244303614607,
            19.56244303614607,
            20.433806739599767,
            20.433806739599767,
            20.433806739599767,
            20.60073155493869,
            20.60073155493869,
            20.60073155493869,
            21.585838026495473,
            21.585838026495473,
            21.585838026495473
        ]
    },
    "born_effective_charge": {
        "avg_abs_trace": 1.9231069696969698,
        "tensors": [
            [
                [
                    3.71563,
                    0.0032,
                    0.0032
                ],
                [
                    0.00321,
                    3.71561,
                    0.00321
                ],
                [
                    0.00324,
                    0.00324,
                    3.71554
                ]
            ],
            [
                [
                    3.71563,
                    -0.0032,
                    -0.0032
                ],
                [
                    -0.00321,
                    3.71561,
                    0.00321
                ],
                [
                    -0.00324,
                    0.00324,
                    3.71554
                ]
            ],
            [
                [
                    3.71563,
                    0.0032,
                    -0.0032
                ],
                [
                    0.00321,
                    3.71561,
                    -0.00321
                ],
                [
                    -0.00324,
                    -0.00324,
                    3.71554
                ]
            ],
            [
                [
                    3.71563,
                    -0.0032,
                    0.0032
                ],
                [
                    -0.00321,
                    3.71561,
                    -0.00321
                ],
                [
                    0.00324,
                    -0.00324,
                    3.71554
                ]
            ],
            [
                [
                    1.57288,
                    -0.4453,
                    -0.4453
                ],
                [
                    -0.44526,
                    1.57301,
                    -0.44526
                ],
                [
                    -0.44522,
                    -0.44522,
                    1.57297
                ]
            ],
            [
                [
                    1.57288,
                    0.4453,
                    0.4453
                ],
                [
                    0.44526,
                    1.57301,
                    -0.44526
                ],
                [
                    0.44522,
                    -0.44522,
                    1.57297
                ]
            ],
            [
                [
                    1.57288,
                    -0.4453,
                    0.4453
                ],
                [
                    -0.44526,
                    1.57301,
                    0.44526
                ],
                [
                    0.44522,
                    0.44522,
                    1.57297
                ]
            ],
            [
                [
                    1.57288,
                    0.4453,
                    -0.4453
                ],
                [
                    0.44526,
                    1.57301,
                    0.44526
                ],
                [
                    -0.44522,
                    0.44522,
                    1.57297
                ]
            ],
            [
                [
                    -1.7687,
                    0.93514,
                    0.00012
                ],
                [
                    0.93517,
                    -1.76874,
                    4e-05
                ],
                [
                    -0.0,
                    -0.0,
                    -0.55961
                ]
            ],
            [
                [
                    -1.7687,
                    -0.93514,
                    0.00012
                ],
                [
                    -0.93517,
                    -1.76874,
                    4e-05
                ],
                [
                    0.0,
                    0.0,
                    -0.55961
                ]
            ],
            [
                [
                    -1.7687,
                    -0.00012,
                    -0.93514
                ],
                [
                    0.0,
                    -0.55926,
                    0.0
                ],
                [
                    -0.93533,
                    -0.00012,
                    -1.76865
                ]
            ],
            [
                [
                    -0.55923,
                    0.0,
                    -0.0
                ],
                [
                    4e-05,
                    -1.76874,
                    0.93517
                ],
                [
                    0.00012,
                    0.93533,
                    -1.76865
                ]
            ],
            [
                [
                    -0.55921,
                    0.0,
                    -0.0
                ],
                [
                    -4e-05,
                    -1.76874,
                    -0.93517
                ],
                [
                    -0.00012,
                    -0.93533,
                    -1.76865
                ]
            ],
            [
                [
                    -1.7687,
                    0.00012,
                    0.93514
                ],
                [
                    0.0,
                    -0.55922,
                    0.0
                ],
                [
                    0.93533,
                    0.00012,
                    -1.76865
                ]
            ],
            [
                [
                    -1.7687,
                    0.00012,
                    -0.93514
                ],
                [
                    0.0,
                    -0.55922,
                    0.0
                ],
                [
                    -0.93533,
                    0.00012,
                    -1.76865
                ]
            ],
            [
                [
                    -1.7687,
                    -0.00012,
                    0.93514
                ],
                [
                    0.0,
                    -0.55926,
                    0.0
                ],
                [
                    0.93533,
                    -0.00012,
                    -1.76865
                ]
            ],
            [
                [
                    -2.38378,
                    -0.0,
                    -0.0
                ],
                [
                    0.0,
                    -2.38378,
                    0.0
                ],
                [
                    0.0,
                    0.0,
                    -2.38351
                ]
            ],
            [
                [
                    -2.38378,
                    -0.0,
                    -0.0
                ],
                [
                    0.0,
                    -2.38378,
                    0.0
                ],
                [
                    0.0,
                    0.0,
                    -2.38351
                ]
            ],
            [
                [
                    -1.7687,
                    -0.93514,
                    -0.00012
                ],
                [
                    -0.93517,
                    -1.76874,
                    -4e-05
                ],
                [
                    -0.0,
                    -0.0,
                    -0.55929
                ]
            ],
            [
                [
                    -0.55923,
                    -0.0,
                    -0.0
                ],
                [
                    4e-05,
                    -1.76874,
                    -0.93517
                ],
                [
                    0.00012,
                    -0.93533,
                    -1.76865
                ]
            ],
            [
                [
                    -0.55921,
                    -0.0,
                    -0.0
                ],
                [
                    -4e-05,
                    -1.76874,
                    0.93517
                ],
                [
                    -0.00012,
                    0.93533,
                    -1.76865
                ]
            ],
            [
                [
                    -1.7687,
                    0.93514,
                    -0.00012
                ],
                [
                    0.93517,
                    -1.76874,
                    -4e-05
                ],
                [
                    0.0,
                    0.0,
                    -0.55929
                ]
            ]
        ]
    },
    "band_gap": 0.9840999999999998,
    "is_direct": true,
    "formula": "Tl2Pt2O7"
}