{
    "mp_id": "mp-1214020",
    "nelements": 4,
    "nsites": 18,
    "elements": [
        "B",
        "Ca",
        "O",
        "Y"
    ],
    "structure": {
        "@module": "pymatgen.core.structure",
        "@class": "Structure",
        "charge": null,
        "lattice": {
            "matrix": [
                [
                    4.0129345,
                    -7.96453229,
                    0.00014148
                ],
                [
                    4.0129345,
                    7.96453229,
                    0.00014148
                ],
                [
                    -0.67518867,
                    0.0,
                    3.43637464
                ]
            ],
            "a": 8.918375295969524,
            "b": 8.918375295969524,
            "c": 3.5020780126278597,
            "alpha": 94.97583993331675,
            "beta": 94.97583993331675,
            "gamma": 126.51744312999064,
            "volume": 219.66246756347329
        },
        "sites": [
            {
                "species": [
                    {
                        "element": "Ca",
                        "occu": 1
                    }
                ],
                "abc": [
                    0.32736416,
                    0.55153297,
                    0.72247109
                ],
                "xyz": [
                    3.039152320557435,
                    1.785399725655875,
                    2.4828056781751098
                ],
                "label": "Ca",
                "properties": {}
            },
            {
                "species": [
                    {
                        "element": "Ca",
                        "occu": 1
                    }
                ],
                "abc": [
                    0.55153297,
                    0.32736416,
                    0.72247109
                ],
                "xyz": [
                    3.039152320557435,
                    -1.785399725655875,
                    2.4828056781751098
                ],
                "label": "Ca",
                "properties": {}
            },
            {
                "species": [
                    {
                        "element": "Ca",
                        "occu": 1
                    }
                ],
                "abc": [
                    0.87756815,
                    0.24317902,
                    0.04893824
                ],
                "xyz": [
                    4.464442439092624,
                    -5.052612710310008,
                    0.16832869017184518
                ],
                "label": "Ca",
                "properties": {}
            },
            {
                "species": [
                    {
                        "element": "Ca",
                        "occu": 1
                    }
                ],
                "abc": [
                    0.24317902,
                    0.87756815,
                    0.04893824
                ],
                "xyz": [
                    4.464442439092624,
                    5.052612710310008,
                    0.16832869017184518
                ],
                "label": "Ca",
                "properties": {}
            },
            {
                "species": [
                    {
                        "element": "Y",
                        "occu": 1
                    }
                ],
                "abc": [
                    0.80035306,
                    0.80035306,
                    0.39731044
                ],
                "xyz": [
                    6.1552693057484245,
                    0.0,
                    1.365533988125099
                ],
                "label": "Y",
                "properties": {}
            },
            {
                "species": [
                    {
                        "element": "B",
                        "occu": 1
                    }
                ],
                "abc": [
                    0.17063563,
                    0.17063563,
                    0.09446684
                ],
                "xyz": [
                    1.3057162730537673,
                    0.0,
                    0.3246717363548024
                ],
                "label": "B",
                "properties": {}
            },
            {
                "species": [
                    {
                        "element": "B",
                        "occu": 1
                    }
                ],
                "abc": [
                    0.94152907,
                    0.55344027,
                    0.47658366
                ],
                "xyz": [
                    5.677430153389098,
                    -3.0909457789873516,
                    1.6379315113246056
                ],
                "label": "B",
                "properties": {}
            },
            {
                "species": [
                    {
                        "element": "B",
                        "occu": 1
                    }
                ],
                "abc": [
                    0.55344027,
                    0.94152907,
                    0.47658366
                ],
                "xyz": [
                    5.677430153389098,
                    3.0909457789873516,
                    1.6379315113246056
                ],
                "label": "B",
                "properties": {}
            },
            {
                "species": [
                    {
                        "element": "O",
                        "occu": 1
                    }
                ],
                "abc": [
                    0.02528939,
                    0.74400907,
                    0.47241887
                ],
                "xyz": [
                    2.768172462412667,
                    5.724266098818468,
                    1.6235170646715777
                ],
                "label": "O",
                "properties": {}
            },
            {
                "species": [
                    {
                        "element": "O",
                        "occu": 1
                    }
                ],
                "abc": [
                    0.74400907,
                    0.02528939,
                    0.47241887
                ],
                "xyz": [
                    2.768172462412667,
                    -5.724266098818468,
                    1.6235170646715777
                ],
                "label": "O",
                "properties": {}
            },
            {
                "species": [
                    {
                        "element": "O",
                        "occu": 1
                    }
                ],
                "abc": [
                    0.62869937,
                    0.62869937,
                    0.81822656
                ],
                "xyz": [
                    4.493401481197454,
                    0.0,
                    2.8119108973321736
                ],
                "label": "O",
                "properties": {}
            },
            {
                "species": [
                    {
                        "element": "O",
                        "occu": 1
                    }
                ],
                "abc": [
                    0.18237499,
                    0.33286371,
                    0.14320018
                ],
                "xyz": [
                    1.970932015887189,
                    1.1985722697207686,
                    0.49216236296671123
                ],
                "label": "O",
                "properties": {}
            },
            {
                "species": [
                    {
                        "element": "O",
                        "occu": 1
                    }
                ],
                "abc": [
                    0.33286371,
                    0.18237499,
                    0.14320018
                ],
                "xyz": [
                    1.970932015887189,
                    -1.1985722697207686,
                    0.49216236296671123
                ],
                "label": "O",
                "properties": {}
            },
            {
                "species": [
                    {
                        "element": "O",
                        "occu": 1
                    }
                ],
                "abc": [
                    0.99472505,
                    0.99472505,
                    0.9967104
                ],
                "xyz": [
                    7.310565372967282,
                    0.0,
                    3.425351809384404
                ],
                "label": "O",
                "properties": {}
            },
            {
                "species": [
                    {
                        "element": "O",
                        "occu": 1
                    }
                ],
                "abc": [
                    0.03809278,
                    0.49985345,
                    0.67588243
                ],
                "xyz": [
                    1.7023948265238666,
                    3.677707766467034,
                    2.3226613507061953
                ],
                "label": "O",
                "properties": {}
            },
            {
                "species": [
                    {
                        "element": "O",
                        "occu": 1
                    }
                ],
                "abc": [
                    0.49985345,
                    0.03809278,
                    0.67588243
                ],
                "xyz": [
                    1.7023948265238666,
                    -3.677707766467034,
                    2.3226613507061953
                ],
                "label": "O",
                "properties": {}
            },
            {
                "species": [
                    {
                        "element": "O",
                        "occu": 1
                    }
                ],
                "abc": [
                    0.76041184,
                    0.41457903,
                    0.27759892
                ],
                "xyz": [
                    4.527729753819779,
                    -2.7543965821864345,
                    0.9541001264876765
                ],
                "label": "O",
                "properties": {}
            },
            {
                "species": [
                    {
                        "element": "O",
                        "occu": 1
                    }
                ],
                "abc": [
                    0.41457903,
                    0.76041184,
                    0.27759892
                ],
                "xyz": [
                    4.527729753819779,
                    2.7543965821864345,
                    0.9541001264876765
                ],
                "label": "O",
                "properties": {}
            }
        ]
    },
    "spacegroup": {
        "source": "spglib",
        "symbol": "Cm",
        "number": 8,
        "point_group": "m",
        "crystal_system": "monoclinic",
        "hall": "C -2y"
    },
    "dielectric": {
        "epsilon_ionic": [
            [
                6.50239166,
                8.73e-06,
                1.12059717
            ],
            [
                8.73e-06,
                9.3266506,
                7.72e-06
            ],
            [
                1.12059717,
                7.72e-06,
                7.84376461
            ]
        ],
        "epsilon_ionic_avg": 7.890935623333337,
        "epsilon_ionic_eig": [
            5.867107857707764,
            8.479048412144786,
            9.32665060014746
        ],
        "epsilon_electronic": [
            [
                3.28651027,
                0.0,
                0.06096742
            ],
            [
                0.0,
                3.28663046,
                0.0
            ],
            [
                0.06101078,
                0.0,
                3.18954788
            ]
        ],
        "epsilon_electronic_avg": 3.2542295366666667,
        "epsilon_electronic_eig": [
            3.3159398965680955,
            3.1601182534319046,
            3.28663046
        ]
    },
    "phonon": {
        "lowest_freq": -0.07890462604539526,
        "frequency": [
            -0.07890462604539526,
            -0.044711602300594,
            -0.03777820008051455,
            1.6213474095787652,
            3.0122442196054515,
            3.15673297443701,
            3.5255296597216614,
            3.908738485005904,
            4.053404996568018,
            4.233486537429579,
            5.0055377363118065,
            5.0621683419486905,
            5.113596806870745,
            5.833112864075351,
            6.262883511775855,
            6.989302120604001,
            7.206812368718001,
            7.240344710413466,
            7.402004712514171,
            7.512084794550046,
            7.6787623418131545,
            7.958299347962097,
            8.26246978815095,
            8.722394592265735,
            8.798709763107876,
            8.846853431781836,
            9.00242630780474,
            9.012214528109883,
            9.13249873814937,
            9.146073885735401,
            9.455428985198257,
            9.665141913783017,
            9.930428900796208,
            11.140789851250085,
            11.312647882946843,
            13.69961606494001,
            16.929760800221175,
            17.169748554514836,
            17.32378344814946,
            17.524130404122406,
            17.948377519797244,
            18.232568397961444,
            21.21621517761246,
            21.26009686546748,
            21.33504549134499,
            27.364927785967737,
            27.43792995534779,
            27.816182554284822,
            36.3691285703842,
            37.19954397662582,
            37.46461333780699,
            38.14521786079595,
            38.80712048654525,
            39.930809583010564
        ]
    },
    "born_effective_charge": {
        "avg_abs_trace": 2.1473325925925923,
        "tensors": [
            [
                [
                    2.55447,
                    0.13044,
                    0.04576
                ],
                [
                    0.10258,
                    2.37222,
                    0.01313
                ],
                [
                    0.05794,
                    0.04538,
                    2.4565
                ]
            ],
            [
                [
                    2.55447,
                    -0.13044,
                    0.04576
                ],
                [
                    -0.10258,
                    2.37222,
                    -0.01313
                ],
                [
                    0.05794,
                    -0.04538,
                    2.4565
                ]
            ],
            [
                [
                    2.41108,
                    -0.11965,
                    0.02165
                ],
                [
                    -0.10115,
                    2.4323,
                    -0.07314
                ],
                [
                    0.01464,
                    -0.05013,
                    2.35975
                ]
            ],
            [
                [
                    2.41108,
                    0.11965,
                    0.02165
                ],
                [
                    0.10115,
                    2.4323,
                    0.07314
                ],
                [
                    0.01464,
                    0.05013,
                    2.35975
                ]
            ],
            [
                [
                    3.2358,
                    0.0,
                    -0.2863
                ],
                [
                    0.0,
                    3.54143,
                    -0.0
                ],
                [
                    -0.23589,
                    -0.0,
                    4.25951
                ]
            ],
            [
                [
                    2.867,
                    0.0,
                    0.60455
                ],
                [
                    0.0,
                    2.83865,
                    0.0
                ],
                [
                    0.53313,
                    -0.0,
                    0.51808
                ]
            ],
            [
                [
                    2.30033,
                    -0.38977,
                    0.54119
                ],
                [
                    -0.41159,
                    2.18455,
                    0.77722
                ],
                [
                    0.5506,
                    0.75639,
                    1.28757
                ]
            ],
            [
                [
                    2.30033,
                    0.38977,
                    0.54119
                ],
                [
                    0.41159,
                    2.18455,
                    -0.77722
                ],
                [
                    0.5506,
                    -0.75639,
                    1.28757
                ]
            ],
            [
                [
                    -2.04422,
                    0.30854,
                    0.00741
                ],
                [
                    0.2773,
                    -2.15691,
                    -0.18827
                ],
                [
                    -0.02886,
                    -0.10863,
                    -1.42224
                ]
            ],
            [
                [
                    -2.04422,
                    -0.30854,
                    0.00741
                ],
                [
                    -0.27731,
                    -2.15693,
                    0.18828
                ],
                [
                    -0.02886,
                    0.10863,
                    -1.42224
                ]
            ],
            [
                [
                    -2.31774,
                    0.0,
                    0.09656
                ],
                [
                    0.0,
                    -1.90725,
                    -0.0
                ],
                [
                    0.07149,
                    -0.0,
                    -2.71001
                ]
            ],
            [
                [
                    -1.9708,
                    0.41209,
                    -0.14637
                ],
                [
                    0.40982,
                    -2.32581,
                    0.11304
                ],
                [
                    -0.13886,
                    0.08111,
                    -1.36027
                ]
            ],
            [
                [
                    -1.9708,
                    -0.41209,
                    -0.14637
                ],
                [
                    -0.40981,
                    -2.3258,
                    -0.11304
                ],
                [
                    -0.13886,
                    -0.08111,
                    -1.36027
                ]
            ],
            [
                [
                    -2.877,
                    0.0,
                    -0.24207
                ],
                [
                    1e-05,
                    -1.44145,
                    0.0
                ],
                [
                    -0.20874,
                    -0.0,
                    -1.78046
                ]
            ],
            [
                [
                    -1.64679,
                    0.006,
                    -0.10376
                ],
                [
                    0.00338,
                    -2.29595,
                    -0.47378
                ],
                [
                    -0.10044,
                    -0.50037,
                    -1.65663
                ]
            ],
            [
                [
                    -1.64679,
                    -0.006,
                    -0.10376
                ],
                [
                    -0.00338,
                    -2.29596,
                    0.47378
                ],
                [
                    -0.10044,
                    0.50037,
                    -1.65663
                ]
            ],
            [
                [
                    -2.0581,
                    -0.2437,
                    -0.45225
                ],
                [
                    -0.23086,
                    -1.72607,
                    -0.12349
                ],
                [
                    -0.43502,
                    -0.12941,
                    -1.80822
                ]
            ],
            [
                [
                    -2.0581,
                    0.2437,
                    -0.45225
                ],
                [
                    0.23086,
                    -1.72607,
                    0.12349
                ],
                [
                    -0.43502,
                    0.12941,
                    -1.80822
                ]
            ]
        ]
    },
    "band_gap": 4.4963,
    "is_direct": true,
    "formula": "Ca4YB3O10"
}