{
    "mp_id": "mp-19120",
    "nelements": 3,
    "nsites": 12,
    "elements": [
        "Cr",
        "Mg",
        "O"
    ],
    "structure": {
        "@module": "pymatgen.core.structure",
        "@class": "Structure",
        "charge": null,
        "lattice": {
            "matrix": [
                [
                    2.74263379,
                    -4.16702911,
                    0.0
                ],
                [
                    2.74263379,
                    4.16702911,
                    0.0
                ],
                [
                    0.0,
                    0.0,
                    6.36620355
                ]
            ],
            "a": 4.9886041845026305,
            "b": 4.9886041845026305,
            "c": 6.36620355,
            "alpha": 90.0,
            "beta": 90.0,
            "gamma": 113.29618528956655,
            "volume": 145.514031392851
        },
        "sites": [
            {
                "species": [
                    {
                        "element": "Mg",
                        "occu": 1
                    }
                ],
                "abc": [
                    0.0,
                    0.0,
                    0.0
                ],
                "xyz": [
                    0.0,
                    0.0,
                    0.0
                ],
                "label": "Mg",
                "properties": {}
            },
            {
                "species": [
                    {
                        "element": "Mg",
                        "occu": 1
                    }
                ],
                "abc": [
                    0.0,
                    0.0,
                    0.5
                ],
                "xyz": [
                    0.0,
                    0.0,
                    3.183101775
                ],
                "label": "Mg",
                "properties": {}
            },
            {
                "species": [
                    {
                        "element": "Cr",
                        "occu": 1
                    }
                ],
                "abc": [
                    0.35902923,
                    0.64097077,
                    0.75
                ],
                "xyz": [
                    2.74263379,
                    1.1748586044982297,
                    4.774652662499999
                ],
                "label": "Cr",
                "properties": {}
            },
            {
                "species": [
                    {
                        "element": "Cr",
                        "occu": 1
                    }
                ],
                "abc": [
                    0.64097077,
                    0.35902923,
                    0.25
                ],
                "xyz": [
                    2.74263379,
                    -1.1748586044982297,
                    1.5915508875
                ],
                "label": "Cr",
                "properties": {}
            },
            {
                "species": [
                    {
                        "element": "O",
                        "occu": 1
                    }
                ],
                "abc": [
                    0.72751338,
                    0.78078517,
                    0.75
                ],
                "xyz": [
                    4.136710568638005,
                    0.2219850996718069,
                    4.774652662499999
                ],
                "label": "O",
                "properties": {}
            },
            {
                "species": [
                    {
                        "element": "O",
                        "occu": 1
                    }
                ],
                "abc": [
                    0.27248662,
                    0.21921483,
                    0.25
                ],
                "xyz": [
                    1.3485570113619956,
                    -0.2219850996718069,
                    1.5915508875
                ],
                "label": "O",
                "properties": {}
            },
            {
                "species": [
                    {
                        "element": "O",
                        "occu": 1
                    }
                ],
                "abc": [
                    0.78078517,
                    0.72751338,
                    0.25
                ],
                "xyz": [
                    4.136710568638005,
                    -0.2219850996718069,
                    1.5915508875
                ],
                "label": "O",
                "properties": {}
            },
            {
                "species": [
                    {
                        "element": "O",
                        "occu": 1
                    }
                ],
                "abc": [
                    0.21921483,
                    0.27248662,
                    0.75
                ],
                "xyz": [
                    1.3485570113619956,
                    0.2219850996718069,
                    4.774652662499999
                ],
                "label": "O",
                "properties": {}
            },
            {
                "species": [
                    {
                        "element": "O",
                        "occu": 1
                    }
                ],
                "abc": [
                    0.24607051,
                    0.75392949,
                    0.95721761
                ],
                "xyz": [
                    2.74263379,
                    2.1162631534349075,
                    6.093842146904516
                ],
                "label": "O",
                "properties": {}
            },
            {
                "species": [
                    {
                        "element": "O",
                        "occu": 1
                    }
                ],
                "abc": [
                    0.75392949,
                    0.24607051,
                    0.45721761
                ],
                "xyz": [
                    2.74263379,
                    -2.1162631534349075,
                    2.9107403719045153
                ],
                "label": "O",
                "properties": {}
            },
            {
                "species": [
                    {
                        "element": "O",
                        "occu": 1
                    }
                ],
                "abc": [
                    0.75392949,
                    0.24607051,
                    0.04278239
                ],
                "xyz": [
                    2.74263379,
                    -2.1162631534349075,
                    0.27236140309548446
                ],
                "label": "O",
                "properties": {}
            },
            {
                "species": [
                    {
                        "element": "O",
                        "occu": 1
                    }
                ],
                "abc": [
                    0.24607051,
                    0.75392949,
                    0.54278239
                ],
                "xyz": [
                    2.74263379,
                    2.1162631534349075,
                    3.455463178095484
                ],
                "label": "O",
                "properties": {}
            }
        ]
    },
    "spacegroup": {
        "source": "spglib",
        "symbol": "Cmcm",
        "number": 63,
        "point_group": "mmm",
        "crystal_system": "orthorhombic",
        "hall": "-C 2c 2"
    },
    "dielectric": {
        "epsilon_ionic": [
            [
                5.9147151,
                0.0,
                2.6e-07
            ],
            [
                0.0,
                3.32024061,
                -3e-08
            ],
            [
                2.6e-07,
                -3e-08,
                2.51766389
            ]
        ],
        "epsilon_ionic_avg": 3.9175398666666665,
        "epsilon_ionic_eig": [
            5.91471510000002,
            2.517663889999978,
            3.320240610000001
        ],
        "epsilon_electronic": [
            [
                4.04005748,
                0.0,
                0.0
            ],
            [
                0.0,
                3.60726765,
                0.0
            ],
            [
                0.0,
                0.0,
                3.50860837
            ]
        ],
        "epsilon_electronic_avg": 3.7186445,
        "epsilon_electronic_eig": [
            4.04005748,
            3.60726765,
            3.50860837
        ]
    },
    "phonon": {
        "lowest_freq": -0.038256013626873114,
        "frequency": [
            -0.038256013626873114,
            -0.030354001820799083,
            -0.023528622419121105,
            3.9273145999679233,
            4.42707131346933,
            4.739853055136847,
            4.884270276768692,
            5.007290354301227,
            5.212576910900489,
            5.822376169893874,
            6.9167711838332595,
            7.237189183339489,
            7.276990231083609,
            8.806409030240324,
            8.833392023489498,
            9.100083806937853,
            10.708091664062207,
            10.735844188920538,
            10.825417094842795,
            11.114551717208885,
            11.427510073997073,
            11.518860757005998,
            11.776037772427244,
            12.014358215454784,
            12.29337392150473,
            12.296839423679453,
            12.66665852531525,
            12.932761696422716,
            24.627557098399397,
            25.358794498127423,
            25.504553435748132,
            25.641287005560443,
            28.66037334940041,
            29.11057708732142,
            29.204217264861907,
            30.22500290764012
        ]
    },
    "born_effective_charge": {
        "avg_abs_trace": 1.8375349999999997,
        "tensors": [
            [
                [
                    3.04636,
                    -0.0,
                    0.0
                ],
                [
                    0.0,
                    2.63881,
                    -0.94629
                ],
                [
                    0.0,
                    0.72935,
                    2.15885
                ]
            ],
            [
                [
                    3.04636,
                    -0.0,
                    0.0
                ],
                [
                    0.0,
                    2.63881,
                    0.94629
                ],
                [
                    0.0,
                    -0.72935,
                    2.15885
                ]
            ],
            [
                [
                    3.10798,
                    -0.00072,
                    0.0
                ],
                [
                    0.0,
                    2.80268,
                    0.0
                ],
                [
                    0.0,
                    -0.00023,
                    2.78305
                ]
            ],
            [
                [
                    3.10798,
                    0.00072,
                    0.0
                ],
                [
                    0.0,
                    2.80284,
                    0.0
                ],
                [
                    -0.0,
                    0.00023,
                    2.78305
                ]
            ],
            [
                [
                    -2.61257,
                    1.06904,
                    0.0
                ],
                [
                    1.02076,
                    -1.28762,
                    0.0
                ],
                [
                    -0.00016,
                    0.0004,
                    -0.87394
                ]
            ],
            [
                [
                    -2.61262,
                    1.06807,
                    0.0
                ],
                [
                    1.0204,
                    -1.28757,
                    0.0
                ],
                [
                    0.00016,
                    -0.0004,
                    -0.87394
                ]
            ],
            [
                [
                    -2.61257,
                    -1.06904,
                    0.0
                ],
                [
                    -1.0204,
                    -1.28757,
                    0.0
                ],
                [
                    -0.00016,
                    -0.0004,
                    -0.87394
                ]
            ],
            [
                [
                    -2.61262,
                    -1.06807,
                    0.0
                ],
                [
                    -1.02076,
                    -1.28762,
                    0.0
                ],
                [
                    0.00016,
                    0.0004,
                    -0.87394
                ]
            ],
            [
                [
                    -0.46458,
                    0.00029,
                    0.00034
                ],
                [
                    0.0,
                    -1.43313,
                    -0.78399
                ],
                [
                    0.0,
                    -1.14925,
                    -1.59648
                ]
            ],
            [
                [
                    -0.46458,
                    -0.00029,
                    0.00034
                ],
                [
                    0.0,
                    -1.43325,
                    0.7839
                ],
                [
                    0.0,
                    1.14925,
                    -1.59648
                ]
            ],
            [
                [
                    -0.46458,
                    -0.00029,
                    -0.00034
                ],
                [
                    0.0,
                    -1.43325,
                    -0.7839
                ],
                [
                    0.0,
                    -1.14982,
                    -1.59754
                ]
            ],
            [
                [
                    -0.46458,
                    0.00029,
                    -0.00034
                ],
                [
                    0.0,
                    -1.43313,
                    0.78399
                ],
                [
                    0.0,
                    1.14982,
                    -1.59754
                ]
            ]
        ]
    },
    "band_gap": 2.4205,
    "is_direct": false,
    "formula": "MgCrO4"
}