{
    "mp_id": "mp-1211624",
    "nelements": 3,
    "nsites": 18,
    "elements": [
        "K",
        "O",
        "Zr"
    ],
    "structure": {
        "@module": "pymatgen.core.structure",
        "@class": "Structure",
        "charge": null,
        "lattice": {
            "matrix": [
                [
                    6.57417531,
                    -0.00102905,
                    -0.00045599
                ],
                [
                    2.52729583,
                    6.09867315,
                    5.612e-05
                ],
                [
                    3.11551316,
                    0.4238424,
                    9.39541844
                ]
            ],
            "a": 6.574175406352069,
            "b": 6.60159362624024,
            "c": 9.907570453590678,
            "alpha": 80.79815653082905,
            "beta": 71.6762875069645,
            "gamma": 67.49980590635771,
            "volume": 376.729978523927
        },
        "sites": [
            {
                "species": [
                    {
                        "element": "K",
                        "occu": 1
                    }
                ],
                "abc": [
                    0.95395807,
                    0.2308636,
                    0.60886277
                ],
                "xyz": [
                    8.751868176717092,
                    1.6650418257878545,
                    5.720098457412372
                ],
                "label": "K",
                "properties": {}
            },
            {
                "species": [
                    {
                        "element": "K",
                        "occu": 1
                    }
                ],
                "abc": [
                    0.04604193,
                    0.7691364,
                    0.39113723
                ],
                "xyz": [
                    3.4651161232829075,
                    4.856444674212146,
                    3.6749201125876287
                ],
                "label": "K",
                "properties": {}
            },
            {
                "species": [
                    {
                        "element": "K",
                        "occu": 1
                    }
                ],
                "abc": [
                    0.39528096,
                    0.27361142,
                    0.82366662
                ],
                "xyz": [
                    5.8562875226141955,
                    2.0173646938361727,
                    7.738527660868413
                ],
                "label": "K",
                "properties": {}
            },
            {
                "species": [
                    {
                        "element": "K",
                        "occu": 1
                    }
                ],
                "abc": [
                    0.60471904,
                    0.72638858,
                    0.17633338
                ],
                "xyz": [
                    6.3606967773858045,
                    4.504121806163826,
                    1.6564909091315874
                ],
                "label": "K",
                "properties": {}
            },
            {
                "species": [
                    {
                        "element": "K",
                        "occu": 1
                    }
                ],
                "abc": [
                    0.24130852,
                    0.76199109,
                    0.98301118
                ],
                "xyz": [
                    6.5747656862479245,
                    5.063528100347759,
                    9.235734095966095
                ],
                "label": "K",
                "properties": {}
            },
            {
                "species": [
                    {
                        "element": "K",
                        "occu": 1
                    }
                ],
                "abc": [
                    0.75869148,
                    0.23800891,
                    0.01698882
                ],
                "xyz": [
                    5.642218613752075,
                    1.4579583996522405,
                    0.15928447403390483
                ],
                "label": "K",
                "properties": {}
            },
            {
                "species": [
                    {
                        "element": "K",
                        "occu": 1
                    }
                ],
                "abc": [
                    0.48239957,
                    0.73152825,
                    0.56072681
                ],
                "xyz": [
                    6.767119394120634,
                    4.698515080358723,
                    5.268084094461842
                ],
                "label": "K",
                "properties": {}
            },
            {
                "species": [
                    {
                        "element": "K",
                        "occu": 1
                    }
                ],
                "abc": [
                    0.51760043,
                    0.26847175,
                    0.43927319
                ],
                "xyz": [
                    5.449864905879366,
                    1.822971419641277,
                    4.1269344755381585
                ],
                "label": "K",
                "properties": {}
            },
            {
                "species": [
                    {
                        "element": "Zr",
                        "occu": 1
                    }
                ],
                "abc": [
                    0.84387149,
                    0.7209301,
                    0.7567307
                ],
                "xyz": [
                    9.727367204248406,
                    4.7165832139817105,
                    7.109457234530595
                ],
                "label": "Zr",
                "properties": {}
            },
            {
                "species": [
                    {
                        "element": "Zr",
                        "occu": 1
                    }
                ],
                "abc": [
                    0.15612851,
                    0.2790699,
                    0.2432693
                ],
                "xyz": [
                    2.489617095751593,
                    1.8049032860182894,
                    2.285561335469405
                ],
                "label": "Zr",
                "properties": {}
            },
            {
                "species": [
                    {
                        "element": "O",
                        "occu": 1
                    }
                ],
                "abc": [
                    0.70574253,
                    0.96668133,
                    0.62836716
                ],
                "xyz": [
                    9.040450966482615,
                    6.161075872702376,
                    5.903504840774415
                ],
                "label": "O",
                "properties": {}
            },
            {
                "species": [
                    {
                        "element": "O",
                        "occu": 1
                    }
                ],
                "abc": [
                    0.29425747,
                    0.03331867,
                    0.37163284
                ],
                "xyz": [
                    3.176533333517386,
                    0.360410627297623,
                    3.491513729225585
                ],
                "label": "O",
                "properties": {}
            },
            {
                "species": [
                    {
                        "element": "O",
                        "occu": 1
                    }
                ],
                "abc": [
                    0.84425504,
                    0.45971715,
                    0.35977432
                ],
                "xyz": [
                    7.833003504075598,
                    2.9552834698977786,
                    3.379871107837229
                ],
                "label": "O",
                "properties": {}
            },
            {
                "species": [
                    {
                        "element": "O",
                        "occu": 1
                    }
                ],
                "abc": [
                    0.15574496,
                    0.54028285,
                    0.64022568
                ],
                "xyz": [
                    4.383980795924402,
                    3.5662030301022214,
                    6.015147462162771
                ],
                "label": "O",
                "properties": {}
            },
            {
                "species": [
                    {
                        "element": "O",
                        "occu": 1
                    }
                ],
                "abc": [
                    0.65066838,
                    0.53334108,
                    0.80483668
                ],
                "xyz": [
                    8.132997954436103,
                    3.593127264150795,
                    7.561510617287193
                ],
                "label": "O",
                "properties": {}
            },
            {
                "species": [
                    {
                        "element": "O",
                        "occu": 1
                    }
                ],
                "abc": [
                    0.34933162,
                    0.46665892,
                    0.19516332
                ],
                "xyz": [
                    4.083986345563897,
                    2.9283592358492045,
                    1.8335079527128073
                ],
                "label": "O",
                "properties": {}
            },
            {
                "species": [
                    {
                        "element": "O",
                        "occu": 1
                    }
                ],
                "abc": [
                    0.84912659,
                    0.84536253,
                    0.92547441
                ],
                "xyz": [
                    10.602115963547977,
                    5.546971265082614,
                    8.69487958597353
                ],
                "label": "O",
                "properties": {}
            },
            {
                "species": [
                    {
                        "element": "O",
                        "occu": 1
                    }
                ],
                "abc": [
                    0.15087341,
                    0.15463747,
                    0.07452559
                ],
                "xyz": [
                    1.6148683364520218,
                    0.9745152349173859,
                    0.7001389840264701
                ],
                "label": "O",
                "properties": {}
            }
        ]
    },
    "spacegroup": {
        "source": "spglib",
        "symbol": "P-1",
        "number": 2,
        "point_group": "-1",
        "crystal_system": "triclinic",
        "hall": "-P 1"
    },
    "dielectric": {
        "epsilon_ionic": [
            [
                4.19840193,
                -0.43318687,
                0.30423679
            ],
            [
                -0.43318687,
                4.63823785,
                -0.2231852
            ],
            [
                0.30423679,
                -0.2231852,
                3.88984771
            ]
        ],
        "epsilon_ionic_avg": 4.242162496666668,
        "epsilon_ionic_eig": [
            5.0145033096576,
            4.011227281023228,
            3.7007568993191757
        ],
        "epsilon_electronic": [
            [
                2.76993383,
                0.00672158,
                0.0026674
            ],
            [
                0.0067234,
                2.80083955,
                0.010893
            ],
            [
                0.00266585,
                0.0108918,
                2.80328611
            ]
        ],
        "epsilon_electronic_avg": 2.791353163333334,
        "epsilon_electronic_eig": [
            2.76852996108988,
            2.8139835215372653,
            2.791546007372856
        ]
    },
    "phonon": {
        "lowest_freq": -0.07834376482310594,
        "frequency": [
            -0.07834376482310594,
            -0.04442633405097436,
            -0.04388834922071898,
            1.6759422401469082,
            2.257634489930414,
            2.315042539670514,
            2.4814189256730828,
            2.6140915204364883,
            2.7505665374170314,
            2.963217950440646,
            2.9745957550132505,
            3.101882580533833,
            3.2787268431250483,
            3.326406687141466,
            3.3788679552859135,
            3.574914026235513,
            3.767827274306451,
            3.9915184606359655,
            4.0427204992191355,
            4.204293312572124,
            4.292493156817797,
            4.517280520590213,
            4.557739602827631,
            4.731755510895226,
            4.759379535165614,
            5.00925245209767,
            5.087703685947002,
            5.287845954512824,
            5.347815123471751,
            5.491828153417475,
            5.515558135957653,
            5.560921786298165,
            5.663665608373743,
            5.881653679401986,
            5.943293610109978,
            6.320392999902147,
            7.5592831763221255,
            7.92277167486056,
            7.971532627012898,
            8.146519552311469,
            8.164252781714307,
            8.297022871041808,
            8.670286370578182,
            8.881603813338815,
            9.207239603452935,
            9.489463132530013,
            17.010174932561007,
            17.025190497117595,
            17.231002699505893,
            17.50972410271751,
            17.84348259735998,
            18.904965118039183,
            20.184583274959195,
            20.246233307954025
        ]
    },
    "born_effective_charge": {
        "avg_abs_trace": 1.6396872222222223,
        "tensors": [
            [
                [
                    0.96304,
                    0.14994,
                    -0.03898
                ],
                [
                    0.1732,
                    1.18802,
                    0.09965
                ],
                [
                    -0.06769,
                    0.07287,
                    1.18953
                ]
            ],
            [
                [
                    0.96303,
                    0.14996,
                    -0.03903
                ],
                [
                    0.17321,
                    1.18809,
                    0.0997
                ],
                [
                    -0.06766,
                    0.07294,
                    1.18951
                ]
            ],
            [
                [
                    1.10537,
                    -0.07947,
                    -0.013
                ],
                [
                    -0.08815,
                    1.18718,
                    -0.01635
                ],
                [
                    -0.07309,
                    -0.04419,
                    1.16316
                ]
            ],
            [
                [
                    1.1053,
                    -0.07955,
                    -0.01302
                ],
                [
                    -0.08816,
                    1.18711,
                    -0.01631
                ],
                [
                    -0.07307,
                    -0.04425,
                    1.16315
                ]
            ],
            [
                [
                    1.17758,
                    -0.03738,
                    -0.01629
                ],
                [
                    -0.01955,
                    1.15844,
                    -0.00521
                ],
                [
                    0.05895,
                    0.04072,
                    1.06327
                ]
            ],
            [
                [
                    1.1776,
                    -0.03742,
                    -0.01636
                ],
                [
                    -0.01953,
                    1.15843,
                    -0.00518
                ],
                [
                    0.05905,
                    0.0407,
                    1.06325
                ]
            ],
            [
                [
                    1.30647,
                    -0.02856,
                    0.0954
                ],
                [
                    -0.06284,
                    1.0365,
                    -0.04522
                ],
                [
                    0.0693,
                    -0.06224,
                    1.12832
                ]
            ],
            [
                [
                    1.30648,
                    -0.02855,
                    0.09542
                ],
                [
                    -0.06284,
                    1.03655,
                    -0.04525
                ],
                [
                    0.06931,
                    -0.06224,
                    1.12836
                ]
            ],
            [
                [
                    2.71844,
                    0.05206,
                    0.07935
                ],
                [
                    0.0621,
                    2.82685,
                    0.12786
                ],
                [
                    0.07454,
                    0.14995,
                    2.9232
                ]
            ],
            [
                [
                    2.71885,
                    0.05184,
                    0.07947
                ],
                [
                    0.06274,
                    2.82714,
                    0.12793
                ],
                [
                    0.07441,
                    0.1497,
                    2.92334
                ]
            ],
            [
                [
                    -1.47544,
                    0.32269,
                    -0.32811
                ],
                [
                    0.34887,
                    -2.18548,
                    0.62354
                ],
                [
                    -0.27117,
                    0.57551,
                    -1.86322
                ]
            ],
            [
                [
                    -1.47554,
                    0.32272,
                    -0.32808
                ],
                [
                    0.34865,
                    -2.18546,
                    0.62338
                ],
                [
                    -0.27123,
                    0.57549,
                    -1.8632
                ]
            ],
            [
                [
                    -1.95302,
                    0.56171,
                    0.47773
                ],
                [
                    0.5236,
                    -1.78849,
                    -0.47691
                ],
                [
                    0.44444,
                    -0.41366,
                    -1.80907
                ]
            ],
            [
                [
                    -1.95297,
                    0.56163,
                    0.47764
                ],
                [
                    0.52345,
                    -1.78843,
                    -0.47698
                ],
                [
                    0.44457,
                    -0.41384,
                    -1.80918
                ]
            ],
            [
                [
                    -2.19987,
                    -0.6651,
                    0.29115
                ],
                [
                    -0.67462,
                    -1.78333,
                    0.19466
                ],
                [
                    0.33712,
                    0.20354,
                    -1.47581
                ]
            ],
            [
                [
                    -2.19978,
                    -0.66481,
                    0.29099
                ],
                [
                    -0.67465,
                    -1.78332,
                    0.19466
                ],
                [
                    0.33718,
                    0.20359,
                    -1.47589
                ]
            ],
            [
                [
                    -1.64286,
                    -0.27589,
                    -0.54715
                ],
                [
                    -0.26281,
                    -1.63982,
                    -0.50195
                ],
                [
                    -0.57245,
                    -0.52225,
                    -2.31935
                ]
            ],
            [
                [
                    -1.64266,
                    -0.27583,
                    -0.54714
                ],
                [
                    -0.26265,
                    -1.63997,
                    -0.50201
                ],
                [
                    -0.57251,
                    -0.52232,
                    -2.31939
                ]
            ]
        ]
    },
    "band_gap": 2.8593,
    "is_direct": false,
    "formula": "K4ZrO4"
}