{
    "mp_id": "mp-1222999",
    "nelements": 4,
    "nsites": 32,
    "elements": [
        "La",
        "O",
        "Ta",
        "Zr"
    ],
    "structure": {
        "@module": "pymatgen.core.structure",
        "@class": "Structure",
        "charge": null,
        "lattice": {
            "matrix": [
                [
                    3.14794071,
                    -5.444267,
                    3.78e-05
                ],
                [
                    3.14794071,
                    5.444267,
                    3.78e-05
                ],
                [
                    -0.05652767,
                    0.0,
                    12.54355405
                ]
            ],
            "a": 6.2888451946596,
            "b": 6.2888451946596,
            "c": 12.543681420649483,
            "alpha": 90.12890090352974,
            "beta": 90.12890090352974,
            "gamma": 119.92596417820462,
            "volume": 429.94864503001384
        },
        "sites": [
            {
                "species": [
                    {
                        "element": "La",
                        "occu": 1
                    }
                ],
                "abc": [
                    0.33198691,
                    0.66801309,
                    0.5
                ],
                "xyz": [
                    3.1196768749999997,
                    1.8294162429100596,
                    6.271814825
                ],
                "label": "La",
                "properties": {}
            },
            {
                "species": [
                    {
                        "element": "La",
                        "occu": 1
                    }
                ],
                "abc": [
                    0.66672565,
                    0.33327435,
                    0.0
                ],
                "xyz": [
                    3.1479407099999994,
                    -1.8153979086971,
                    3.78e-05
                ],
                "label": "La",
                "properties": {}
            },
            {
                "species": [
                    {
                        "element": "Zr",
                        "occu": 1
                    }
                ],
                "abc": [
                    0.35731686,
                    0.99830912,
                    0.74886396
                ],
                "xyz": [
                    4.225098675169873,
                    3.4897330083734204,
                    9.393466801019082
                ],
                "label": "Zr",
                "properties": {}
            },
            {
                "species": [
                    {
                        "element": "Zr",
                        "occu": 1
                    }
                ],
                "abc": [
                    0.00169088,
                    0.64268314,
                    0.25113604
                ],
                "xyz": [
                    2.014255074830127,
                    3.4897330083734204,
                    3.150162848980918
                ],
                "label": "Zr",
                "properties": {}
            },
            {
                "species": [
                    {
                        "element": "Ta",
                        "occu": 1
                    }
                ],
                "abc": [
                    0.99878541,
                    0.36228869,
                    0.74959649
                ],
                "xyz": [
                    4.242207625696732,
                    -3.46525808830424,
                    9.402655536606263
                ],
                "label": "Ta",
                "properties": {}
            },
            {
                "species": [
                    {
                        "element": "Ta",
                        "occu": 1
                    }
                ],
                "abc": [
                    0.63313022,
                    0.63249254,
                    0.75143976
                ],
                "xyz": [
                    3.9416282709284003,
                    -0.003471700180559978,
                    9.425773085419355
                ],
                "label": "Ta",
                "properties": {}
            },
            {
                "species": [
                    {
                        "element": "Ta",
                        "occu": 1
                    }
                ],
                "abc": [
                    0.63771131,
                    0.00121459,
                    0.25040351
                ],
                "xyz": [
                    1.9971461243032678,
                    -3.4652580883042403,
                    3.1409741133937352
                ],
                "label": "Ta",
                "properties": {}
            },
            {
                "species": [
                    {
                        "element": "Ta",
                        "occu": 1
                    }
                ],
                "abc": [
                    0.36750746,
                    0.36686978,
                    0.24856024
                ],
                "xyz": [
                    2.2977254790715995,
                    -0.0034717001805602,
                    3.1178565645806433
                ],
                "label": "Ta",
                "properties": {}
            },
            {
                "species": [
                    {
                        "element": "Ta",
                        "occu": 1
                    }
                ],
                "abc": [
                    0.3296118,
                    0.6703882,
                    0.0
                ],
                "xyz": [
                    3.1479407099999994,
                    1.8552777088988,
                    3.78e-05
                ],
                "label": "Ta",
                "properties": {}
            },
            {
                "species": [
                    {
                        "element": "Ta",
                        "occu": 1
                    }
                ],
                "abc": [
                    0.66664586,
                    0.33335414,
                    0.5
                ],
                "xyz": [
                    3.119676875,
                    -1.81452911256924,
                    6.271814825
                ],
                "label": "Ta",
                "properties": {}
            },
            {
                "species": [
                    {
                        "element": "O",
                        "occu": 1
                    }
                ],
                "abc": [
                    0.75387446,
                    0.99701131,
                    0.75052866
                ],
                "xyz": [
                    5.469258957524675,
                    1.3237019289389504,
                    9.414362996266178
                ],
                "label": "O",
                "properties": {}
            },
            {
                "species": [
                    {
                        "element": "O",
                        "occu": 1
                    }
                ],
                "abc": [
                    0.9855078,
                    0.72759985,
                    0.74882217
                ],
                "xyz": [
                    5.3504321395329875,
                    -1.4041197412226496,
                    9.392956118702458
                ],
                "label": "O",
                "properties": {}
            },
            {
                "species": [
                    {
                        "element": "O",
                        "occu": 1
                    }
                ],
                "abc": [
                    0.2553876,
                    0.26713622,
                    0.75105115
                ],
                "xyz": [
                    1.6024188333623914,
                    0.06396262416154008,
                    9.420870445740054
                ],
                "label": "O",
                "properties": {}
            },
            {
                "species": [
                    {
                        "element": "O",
                        "occu": 1
                    }
                ],
                "abc": [
                    0.27240015,
                    0.0144922,
                    0.25117783
                ],
                "xyz": [
                    0.8889216104670123,
                    -1.40411974122265,
                    3.150673531297541
                ],
                "label": "O",
                "properties": {}
            },
            {
                "species": [
                    {
                        "element": "O",
                        "occu": 1
                    }
                ],
                "abc": [
                    0.00298869,
                    0.24612554,
                    0.24947134
                ],
                "xyz": [
                    0.7700947924753254,
                    1.32370192893895,
                    3.1292666537338207
                ],
                "label": "O",
                "properties": {}
            },
            {
                "species": [
                    {
                        "element": "O",
                        "occu": 1
                    }
                ],
                "abc": [
                    0.73286378,
                    0.7446124,
                    0.24894885
                ],
                "xyz": [
                    4.636934916637609,
                    0.06396262416153986,
                    3.122759204259946
                ],
                "label": "O",
                "properties": {}
            },
            {
                "species": [
                    {
                        "element": "O",
                        "occu": 1
                    }
                ],
                "abc": [
                    0.4346512,
                    0.37648392,
                    0.40581519
                ],
                "xyz": [
                    2.530465478417428,
                    -0.31667820298376004,
                    5.090395430983555
                ],
                "label": "O",
                "properties": {}
            },
            {
                "species": [
                    {
                        "element": "O",
                        "occu": 1
                    }
                ],
                "abc": [
                    0.63761975,
                    0.06112102,
                    0.40603023
                ],
                "xyz": [
                    2.1766425727682828,
                    -3.1386130112809103,
                    5.093088548340037
                ],
                "label": "O",
                "properties": {}
            },
            {
                "species": [
                    {
                        "element": "O",
                        "occu": 1
                    }
                ],
                "abc": [
                    0.94808786,
                    0.57700478,
                    0.41587153
                ],
                "xyz": [
                    4.7773929593671385,
                    -2.0202753667023603,
                    5.216564662912988
                ],
                "label": "O",
                "properties": {}
            },
            {
                "species": [
                    {
                        "element": "O",
                        "occu": 1
                    }
                ],
                "abc": [
                    0.05411487,
                    0.62964219,
                    0.08591745
                ],
                "xyz": [
                    2.1475699716630707,
                    3.13332439587444,
                    1.0777360239300406
                ],
                "label": "O",
                "properties": {}
            },
            {
                "species": [
                    {
                        "element": "O",
                        "occu": 1
                    }
                ],
                "abc": [
                    0.57336175,
                    0.94224095,
                    0.0938989
                ],
                "xyz": [
                    4.765719553483354,
                    2.0082768555463995,
                    1.177883217167605
                ],
                "label": "O",
                "properties": {}
            },
            {
                "species": [
                    {
                        "element": "O",
                        "occu": 1
                    }
                ],
                "abc": [
                    0.37201325,
                    0.43005016,
                    0.0927352
                ],
                "xyz": [
                    2.519605955557437,
                    0.31596843389497,
                    1.1632593115344578
                ],
                "label": "O",
                "properties": {}
            },
            {
                "species": [
                    {
                        "element": "O",
                        "occu": 1
                    }
                ],
                "abc": [
                    0.56994984,
                    0.62798675,
                    0.9072648
                ],
                "xyz": [
                    3.7197477944425628,
                    0.31596843389497,
                    11.380370338465541
                ],
                "label": "O",
                "properties": {}
            },
            {
                "species": [
                    {
                        "element": "O",
                        "occu": 1
                    }
                ],
                "abc": [
                    0.37035781,
                    0.94588513,
                    0.91408255
                ],
                "xyz": [
                    4.091783778336929,
                    3.1333243958744394,
                    11.46589362606996
                ],
                "label": "O",
                "properties": {}
            },
            {
                "species": [
                    {
                        "element": "O",
                        "occu": 1
                    }
                ],
                "abc": [
                    0.05775905,
                    0.42663825,
                    0.9061011
                ],
                "xyz": [
                    1.4736341965166457,
                    2.0082768555464,
                    11.365746432832394
                ],
                "label": "O",
                "properties": {}
            },
            {
                "species": [
                    {
                        "element": "O",
                        "occu": 1
                    }
                ],
                "abc": [
                    0.93887898,
                    0.36238025,
                    0.59396977
                ],
                "xyz": [
                    4.0627111772317175,
                    -3.13861301128091,
                    7.450541101659962
                ],
                "label": "O",
                "properties": {}
            },
            {
                "species": [
                    {
                        "element": "O",
                        "occu": 1
                    }
                ],
                "abc": [
                    0.42299522,
                    0.05191214,
                    0.58412847
                ],
                "xyz": [
                    1.4619607906328604,
                    -2.02027536670236,
                    7.327064987087011
                ],
                "label": "O",
                "properties": {}
            },
            {
                "species": [
                    {
                        "element": "O",
                        "occu": 1
                    }
                ],
                "abc": [
                    0.62351608,
                    0.5653488,
                    0.59418481
                ],
                "xyz": [
                    3.7088882715825724,
                    -0.3166782029837605,
                    7.453234219016444
                ],
                "label": "O",
                "properties": {}
            },
            {
                "species": [
                    {
                        "element": "O",
                        "occu": 1
                    }
                ],
                "abc": [
                    0.3308866,
                    0.66173588,
                    0.70601135
                ],
                "xyz": [
                    3.084807537844106,
                    1.8012318170777606,
                    8.855929049768212
                ],
                "label": "O",
                "properties": {}
            },
            {
                "species": [
                    {
                        "element": "O",
                        "occu": 1
                    }
                ],
                "abc": [
                    0.66721425,
                    0.33339546,
                    0.79411396
                ],
                "xyz": [
                    3.104970629057021,
                    -1.8173986223769303,
                    9.961049202166574
                ],
                "label": "O",
                "properties": {}
            },
            {
                "species": [
                    {
                        "element": "O",
                        "occu": 1
                    }
                ],
                "abc": [
                    0.66660454,
                    0.33278575,
                    0.20588604
                ],
                "xyz": [
                    3.1343831209429793,
                    -1.81739862237693,
                    2.5825804478334233
                ],
                "label": "O",
                "properties": {}
            },
            {
                "species": [
                    {
                        "element": "O",
                        "occu": 1
                    }
                ],
                "abc": [
                    0.33826412,
                    0.6691134,
                    0.29398865
                ],
                "xyz": [
                    3.1545462121558936,
                    1.8012318170777597,
                    3.6877006002317887
                ],
                "label": "O",
                "properties": {}
            }
        ]
    },
    "spacegroup": {
        "source": "spglib",
        "symbol": "C2",
        "number": 5,
        "point_group": "2",
        "crystal_system": "monoclinic",
        "hall": "C 2y"
    },
    "dielectric": {
        "epsilon_ionic": [
            [
                17.23824194,
                -4e-07,
                -0.05533286
            ],
            [
                -4e-07,
                17.42290326,
                1.641e-05
            ],
            [
                -0.05533286,
                1.641e-05,
                18.34367941
            ]
        ],
        "epsilon_ionic_avg": 17.668274869999998,
        "epsilon_ionic_eig": [
            18.346442201011165,
            17.235479149279467,
            17.422903259709365
        ],
        "epsilon_electronic": [
            [
                4.87145162,
                0.0,
                0.01684656
            ],
            [
                0.0,
                4.8377817,
                0.0
            ],
            [
                0.01680395,
                0.0,
                4.95453535
            ]
        ],
        "epsilon_electronic_avg": 4.88792289,
        "epsilon_electronic_eig": [
            4.86817367576803,
            4.95781329423197,
            4.8377817
        ]
    },
    "phonon": {
        "lowest_freq": -0.07601201520757125,
        "frequency": [
            -0.07601201520757125,
            -0.07465129178355735,
            -0.05274952566253367,
            2.087597137183043,
            2.1438033561093195,
            2.4219860113673297,
            2.4881578963115074,
            2.896689418846281,
            2.9799262316928057,
            3.400305994355307,
            3.5992230113949226,
            3.6785939568614405,
            3.83163880135572,
            4.161426891610774,
            4.723435955105909,
            4.798248241093712,
            4.849815210027594,
            4.907463583584481,
            5.0148864017458585,
            5.089736271352636,
            5.188064007368901,
            5.3496225183867,
            5.438364453733468,
            5.79722818065805,
            5.909418078395135,
            6.018638337283633,
            6.053564396134653,
            6.276947798134963,
            6.480192407357116,
            6.509103649836059,
            6.596237034367307,
            6.719878094645796,
            6.815670002525736,
            6.841325510757417,
            6.948431950560062,
            7.310707342205359,
            7.548134295655788,
            7.6064049130001115,
            7.700091862675311,
            7.904598470896615,
            8.62604902418175,
            8.72724062296087,
            9.119982934932313,
            9.246210943500554,
            9.455437734606278,
            9.572082028425136,
            9.68627651733584,
            10.04728945937039,
            10.056800634933463,
            10.256551298303256,
            10.347004274266196,
            10.449568390984778,
            10.481916173084173,
            10.607709542391664,
            10.946749348908948,
            11.09390567978425,
            11.193223496769678,
            11.242786244565718,
            11.31743856081577,
            11.323493896813067,
            11.643029180956887,
            11.87445295575566,
            11.902027519721559,
            12.107510663698331,
            12.524316374571297,
            12.548447043204119,
            12.78502002134045,
            13.607197350023792,
            14.609211134913512,
            14.616611789001867,
            15.482336335722653,
            15.556704900078095,
            16.09386551878795,
            16.11682937871425,
            16.174867613133337,
            16.51291780166223,
            16.920318601989567,
            17.341460788984797,
            17.366767246560745,
            18.0657925188751,
            18.23476990218175,
            18.43115215089698,
            18.62027527502199,
            18.73466649159762,
            18.92517156723637,
            19.20001304051522,
            19.592589709408056,
            20.291048047969284,
            20.297139537135514,
            23.135620527315034,
            24.296690027621718,
            24.38368871856188,
            24.602596143377497,
            24.813792675169026,
            25.085150792839627,
            25.253521725991746
        ]
    },
    "born_effective_charge": {
        "avg_abs_trace": 3.8061398958333337,
        "tensors": [
            [
                [
                    3.96732,
                    -5e-05,
                    0.11514
                ],
                [
                    0.0,
                    3.92448,
                    0.0
                ],
                [
                    -0.10269,
                    1e-05,
                    4.48194
                ]
            ],
            [
                [
                    4.0988,
                    6e-05,
                    0.07253
                ],
                [
                    0.0,
                    3.77934,
                    0.0
                ],
                [
                    -0.22618,
                    5e-05,
                    4.52383
                ]
            ],
            [
                [
                    5.88584,
                    0.4704,
                    -0.47078
                ],
                [
                    0.46787,
                    5.41263,
                    -0.24756
                ],
                [
                    -0.06242,
                    -0.01424,
                    5.42314
                ]
            ],
            [
                [
                    5.88569,
                    -0.47038,
                    -0.47075
                ],
                [
                    -0.46787,
                    5.41263,
                    0.24756
                ],
                [
                    -0.06245,
                    0.01435,
                    5.42331
                ]
            ],
            [
                [
                    7.0551,
                    -0.64396,
                    0.71763
                ],
                [
                    -0.3154,
                    6.77409,
                    -0.41199
                ],
                [
                    0.15772,
                    -0.10373,
                    6.87017
                ]
            ],
            [
                [
                    6.40532,
                    0.0748,
                    -0.01565
                ],
                [
                    -0.24955,
                    7.40892,
                    0.76369
                ],
                [
                    -0.04464,
                    0.19305,
                    6.77224
                ]
            ],
            [
                [
                    7.05512,
                    0.64395,
                    0.7177
                ],
                [
                    0.3154,
                    6.77409,
                    0.41199
                ],
                [
                    0.15771,
                    0.1037,
                    6.87017
                ]
            ],
            [
                [
                    6.4053,
                    -0.07481,
                    -0.01565
                ],
                [
                    0.24955,
                    7.40892,
                    -0.76369
                ],
                [
                    -0.04467,
                    -0.19308,
                    6.77224
                ]
            ],
            [
                [
                    6.46586,
                    0.0,
                    -0.06391
                ],
                [
                    0.0,
                    6.23965,
                    0.0
                ],
                [
                    0.30018,
                    -1e-05,
                    8.17339
                ]
            ],
            [
                [
                    6.42946,
                    -2e-05,
                    -0.08849
                ],
                [
                    0.0,
                    6.36542,
                    0.0
                ],
                [
                    0.4093,
                    -1e-05,
                    8.23031
                ]
            ],
            [
                [
                    -4.64602,
                    -1.60264,
                    -0.07562
                ],
                [
                    -1.61721,
                    -2.81604,
                    -0.03046
                ],
                [
                    0.12741,
                    0.072,
                    -1.06391
                ]
            ],
            [
                [
                    -3.76217,
                    1.08045,
                    0.07275
                ],
                [
                    1.16106,
                    -3.20178,
                    -0.07556
                ],
                [
                    -0.06614,
                    0.02789,
                    -1.09111
                ]
            ],
            [
                [
                    -2.37261,
                    0.34658,
                    -0.03891
                ],
                [
                    0.27442,
                    -4.65582,
                    0.05762
                ],
                [
                    -0.00686,
                    -0.09516,
                    -1.09639
                ]
            ],
            [
                [
                    -3.76207,
                    -1.08043,
                    0.07273
                ],
                [
                    -1.16106,
                    -3.20178,
                    0.07556
                ],
                [
                    -0.06617,
                    -0.02789,
                    -1.09113
                ]
            ],
            [
                [
                    -4.64604,
                    1.60264,
                    -0.0756
                ],
                [
                    1.61721,
                    -2.81604,
                    0.03046
                ],
                [
                    0.12739,
                    -0.07202,
                    -1.06388
                ]
            ],
            [
                [
                    -2.37257,
                    -0.34665,
                    -0.03888
                ],
                [
                    -0.27442,
                    -4.65582,
                    -0.05762
                ],
                [
                    -0.00684,
                    0.09511,
                    -1.09641
                ]
            ],
            [
                [
                    -1.18792,
                    0.25726,
                    -0.74027
                ],
                [
                    0.26162,
                    -3.03579,
                    1.08433
                ],
                [
                    -0.84476,
                    1.10972,
                    -4.32661
                ]
            ],
            [
                [
                    -2.22044,
                    -0.87741,
                    -0.53354
                ],
                [
                    -0.80221,
                    -1.92149,
                    -1.26076
                ],
                [
                    -0.53942,
                    -1.31217,
                    -4.36624
                ]
            ],
            [
                [
                    -3.11318,
                    0.77851,
                    1.06033
                ],
                [
                    0.74753,
                    -1.52325,
                    0.2082
                ],
                [
                    1.09647,
                    0.23126,
                    -3.6234
                ]
            ],
            [
                [
                    -2.56067,
                    1.06511,
                    0.42138
                ],
                [
                    1.025,
                    -1.95004,
                    -1.02113
                ],
                [
                    0.45679,
                    -1.13528,
                    -3.65473
                ]
            ],
            [
                [
                    -2.77479,
                    -0.58564,
                    -1.33143
                ],
                [
                    -0.58068,
                    -1.41077,
                    0.14694
                ],
                [
                    -1.36298,
                    0.23944,
                    -4.32186
                ]
            ],
            [
                [
                    -1.25181,
                    -0.26625,
                    0.80377
                ],
                [
                    -0.30129,
                    -2.98843,
                    1.01024
                ],
                [
                    0.82403,
                    1.01561,
                    -4.31957
                ]
            ],
            [
                [
                    -1.2518,
                    0.26631,
                    0.80365
                ],
                [
                    0.30129,
                    -2.98843,
                    -1.01024
                ],
                [
                    0.82401,
                    -1.01562,
                    -4.31956
                ]
            ],
            [
                [
                    -2.56075,
                    -1.06514,
                    0.42126
                ],
                [
                    -1.025,
                    -1.95004,
                    1.02113
                ],
                [
                    0.45687,
                    1.13523,
                    -3.65474
                ]
            ],
            [
                [
                    -2.77474,
                    0.58558,
                    -1.33139
                ],
                [
                    0.58068,
                    -1.41077,
                    -0.14694
                ],
                [
                    -1.36299,
                    -0.23941,
                    -4.3219
                ]
            ],
            [
                [
                    -2.22038,
                    0.87748,
                    -0.5336
                ],
                [
                    0.80221,
                    -1.92149,
                    1.26076
                ],
                [
                    -0.53938,
                    1.31222,
                    -4.36617
                ]
            ],
            [
                [
                    -3.1134,
                    -0.77854,
                    1.06026
                ],
                [
                    -0.74753,
                    -1.52325,
                    -0.2082
                ],
                [
                    1.09648,
                    -0.23133,
                    -3.62331
                ]
            ],
            [
                [
                    -1.18799,
                    -0.25723,
                    -0.74034
                ],
                [
                    -0.26162,
                    -3.03579,
                    -1.08433
                ],
                [
                    -0.84481,
                    -1.10972,
                    -4.32665
                ]
            ],
            [
                [
                    -3.11633,
                    0.30414,
                    0.04822
                ],
                [
                    0.10106,
                    -2.97777,
                    0.09293
                ],
                [
                    0.03377,
                    0.02796,
                    -1.95042
                ]
            ],
            [
                [
                    -2.82087,
                    -0.07919,
                    0.06459
                ],
                [
                    0.12566,
                    -3.26889,
                    0.01092
                ],
                [
                    0.04076,
                    0.02457,
                    -1.95616
                ]
            ],
            [
                [
                    -2.8209,
                    0.0792,
                    0.06471
                ],
                [
                    -0.12566,
                    -3.26889,
                    -0.01092
                ],
                [
                    0.04077,
                    -0.02455,
                    -1.95621
                ]
            ],
            [
                [
                    -3.11636,
                    -0.30413,
                    0.04817
                ],
                [
                    -0.10106,
                    -2.97777,
                    -0.09293
                ],
                [
                    0.03376,
                    -0.02796,
                    -1.9504
                ]
            ]
        ]
    },
    "band_gap": 3.7707999999999995,
    "is_direct": false,
    "formula": "LaZrTa3O11"
}