{
    "mp_id": "mp-1194160",
    "nelements": 4,
    "nsites": 28,
    "elements": [
        "Ba",
        "Hf",
        "O",
        "Si"
    ],
    "structure": {
        "@module": "pymatgen.core.structure",
        "@class": "Structure",
        "charge": null,
        "lattice": {
            "matrix": [
                [
                    6.78489586,
                    0.0,
                    0.0
                ],
                [
                    -3.39244843,
                    5.87589176,
                    0.0
                ],
                [
                    0.0,
                    0.0,
                    10.07597438
                ]
            ],
            "a": 6.78489586,
            "b": 6.784895749047687,
            "c": 10.07597438,
            "alpha": 90.0,
            "beta": 90.0,
            "gamma": 120.00000541644398,
            "volume": 401.7020312011384
        },
        "sites": [
            {
                "species": [
                    {
                        "element": "Ba",
                        "occu": 1
                    }
                ],
                "abc": [
                    0.0,
                    0.0,
                    0.0
                ],
                "xyz": [
                    0.0,
                    0.0,
                    0.0
                ],
                "label": "Ba",
                "properties": {}
            },
            {
                "species": [
                    {
                        "element": "Ba",
                        "occu": 1
                    }
                ],
                "abc": [
                    0.0,
                    0.0,
                    0.5
                ],
                "xyz": [
                    0.0,
                    0.0,
                    5.03798719
                ],
                "label": "Ba",
                "properties": {}
            },
            {
                "species": [
                    {
                        "element": "Hf",
                        "occu": 1
                    }
                ],
                "abc": [
                    0.333333,
                    0.666667,
                    0.0
                ],
                "xyz": [
                    -3.7257814300417635e-06,
                    3.91726313196392,
                    0.0
                ],
                "label": "Hf",
                "properties": {}
            },
            {
                "species": [
                    {
                        "element": "Hf",
                        "occu": 1
                    }
                ],
                "abc": [
                    0.333333,
                    0.666667,
                    0.5
                ],
                "xyz": [
                    -3.7257814300417635e-06,
                    3.91726313196392,
                    5.03798719
                ],
                "label": "Hf",
                "properties": {}
            },
            {
                "species": [
                    {
                        "element": "Si",
                        "occu": 1
                    }
                ],
                "abc": [
                    0.94710791,
                    0.3900356,
                    0.75
                ],
                "xyz": [
                    5.102852878668145,
                    2.291806968146656,
                    7.556980785
                ],
                "label": "Si",
                "properties": {}
            },
            {
                "species": [
                    {
                        "element": "Si",
                        "occu": 1
                    }
                ],
                "abc": [
                    0.6099644,
                    0.55707231,
                    0.75
                ],
                "xyz": [
                    2.2487058488514107,
                    3.2732965960531657,
                    7.556980785
                ],
                "label": "Si",
                "properties": {}
            },
            {
                "species": [
                    {
                        "element": "Si",
                        "occu": 1
                    }
                ],
                "abc": [
                    0.44292769,
                    0.05289209,
                    0.75
                ],
                "xyz": [
                    2.8257845624804445,
                    0.3107881958001784,
                    7.556980785
                ],
                "label": "Si",
                "properties": {}
            },
            {
                "species": [
                    {
                        "element": "Si",
                        "occu": 1
                    }
                ],
                "abc": [
                    0.94710791,
                    0.55707231,
                    0.25
                ],
                "xyz": [
                    4.53618945407628,
                    3.2732965960531657,
                    2.518993595
                ],
                "label": "Si",
                "properties": {}
            },
            {
                "species": [
                    {
                        "element": "Si",
                        "occu": 1
                    }
                ],
                "abc": [
                    0.6099644,
                    0.05289209,
                    0.25
                ],
                "xyz": [
                    3.959111244627465,
                    0.3107881958001784,
                    2.518993595
                ],
                "label": "Si",
                "properties": {}
            },
            {
                "species": [
                    {
                        "element": "Si",
                        "occu": 1
                    }
                ],
                "abc": [
                    0.44292769,
                    0.3900356,
                    0.25
                ],
                "xyz": [
                    1.6820425912962553,
                    2.291806968146656,
                    2.518993595
                ],
                "label": "Si",
                "properties": {}
            },
            {
                "species": [
                    {
                        "element": "O",
                        "occu": 1
                    }
                ],
                "abc": [
                    0.8644432,
                    0.58077641,
                    0.75
                ],
                "xyz": [
                    3.894903068599615,
                    3.4125793219213816,
                    7.556980785
                ],
                "label": "O",
                "properties": {}
            },
            {
                "species": [
                    {
                        "element": "O",
                        "occu": 1
                    }
                ],
                "abc": [
                    0.41922359,
                    0.28366679,
                    0.75
                ],
                "xyz": [
                    1.8820634438266977,
                    1.6667953539466505,
                    7.556980785
                ],
                "label": "O",
                "properties": {}
            },
            {
                "species": [
                    {
                        "element": "O",
                        "occu": 1
                    }
                ],
                "abc": [
                    0.71633321,
                    0.1355568,
                    0.75
                ],
                "xyz": [
                    4.400376777573687,
                    0.796517084131968,
                    7.556980785
                ],
                "label": "O",
                "properties": {}
            },
            {
                "species": [
                    {
                        "element": "O",
                        "occu": 1
                    }
                ],
                "abc": [
                    0.8644432,
                    0.28366679,
                    0.25
                ],
                "xyz": [
                    4.902832132506512,
                    1.6667953539466505,
                    2.518993595
                ],
                "label": "O",
                "properties": {}
            },
            {
                "species": [
                    {
                        "element": "O",
                        "occu": 1
                    }
                ],
                "abc": [
                    0.41922359,
                    0.1355568,
                    0.25
                ],
                "xyz": [
                    2.3845189468695134,
                    0.796517084131968,
                    2.518993595
                ],
                "label": "O",
                "properties": {}
            },
            {
                "species": [
                    {
                        "element": "O",
                        "occu": 1
                    }
                ],
                "abc": [
                    0.71633321,
                    0.58077641,
                    0.25
                ],
                "xyz": [
                    2.8899922106239746,
                    3.4125793219213816,
                    2.518993595
                ],
                "label": "O",
                "properties": {}
            },
            {
                "species": [
                    {
                        "element": "O",
                        "occu": 1
                    }
                ],
                "abc": [
                    0.08646025,
                    0.40494791,
                    0.88378692
                ],
                "xyz": [
                    -0.7871411092317164,
                    2.3794300875982217,
                    8.90501436329911
                ],
                "label": "O",
                "properties": {}
            },
            {
                "species": [
                    {
                        "element": "O",
                        "occu": 1
                    }
                ],
                "abc": [
                    0.59505209,
                    0.68151234,
                    0.88378692
                ],
                "xyz": [
                    1.7253709940667208,
                    4.0044927429443185,
                    8.90501436329911
                ],
                "label": "O",
                "properties": {}
            },
            {
                "species": [
                    {
                        "element": "O",
                        "occu": 1
                    }
                ],
                "abc": [
                    0.31848766,
                    0.91353975,
                    0.88378692
                ],
                "xyz": [
                    -0.9382308848350047,
                    5.36786068945746,
                    8.90501436329911
                ],
                "label": "O",
                "properties": {}
            },
            {
                "species": [
                    {
                        "element": "O",
                        "occu": 1
                    }
                ],
                "abc": [
                    0.08646025,
                    0.40494791,
                    0.61621308
                ],
                "xyz": [
                    -0.7871411092317164,
                    2.3794300875982217,
                    6.20894720670089
                ],
                "label": "O",
                "properties": {}
            },
            {
                "species": [
                    {
                        "element": "O",
                        "occu": 1
                    }
                ],
                "abc": [
                    0.59505209,
                    0.68151234,
                    0.61621308
                ],
                "xyz": [
                    1.7253709940667208,
                    4.0044927429443185,
                    6.20894720670089
                ],
                "label": "O",
                "properties": {}
            },
            {
                "species": [
                    {
                        "element": "O",
                        "occu": 1
                    }
                ],
                "abc": [
                    0.31848766,
                    0.91353975,
                    0.61621308
                ],
                "xyz": [
                    -0.9382308848350047,
                    5.36786068945746,
                    6.20894720670089
                ],
                "label": "O",
                "properties": {}
            },
            {
                "species": [
                    {
                        "element": "O",
                        "occu": 1
                    }
                ],
                "abc": [
                    0.08646025,
                    0.68151234,
                    0.38378692
                ],
                "xyz": [
                    -1.7253716755790616,
                    4.0044927429443185,
                    3.8670271732991095
                ],
                "label": "O",
                "properties": {}
            },
            {
                "species": [
                    {
                        "element": "O",
                        "occu": 1
                    }
                ],
                "abc": [
                    0.59505209,
                    0.91353975,
                    0.38378692
                ],
                "xyz": [
                    0.9382299712952551,
                    5.36786068945746,
                    3.8670271732991095
                ],
                "label": "O",
                "properties": {}
            },
            {
                "species": [
                    {
                        "element": "O",
                        "occu": 1
                    }
                ],
                "abc": [
                    0.31848766,
                    0.40494791,
                    0.38378692
                ],
                "xyz": [
                    0.7871407042838061,
                    2.3794300875982217,
                    3.8670271732991095
                ],
                "label": "O",
                "properties": {}
            },
            {
                "species": [
                    {
                        "element": "O",
                        "occu": 1
                    }
                ],
                "abc": [
                    0.08646025,
                    0.68151234,
                    0.11621308
                ],
                "xyz": [
                    -1.7253716755790616,
                    4.0044927429443185,
                    1.1709600167008904
                ],
                "label": "O",
                "properties": {}
            },
            {
                "species": [
                    {
                        "element": "O",
                        "occu": 1
                    }
                ],
                "abc": [
                    0.59505209,
                    0.91353975,
                    0.11621308
                ],
                "xyz": [
                    0.9382299712952551,
                    5.36786068945746,
                    1.1709600167008904
                ],
                "label": "O",
                "properties": {}
            },
            {
                "species": [
                    {
                        "element": "O",
                        "occu": 1
                    }
                ],
                "abc": [
                    0.31848766,
                    0.40494791,
                    0.11621308
                ],
                "xyz": [
                    0.7871407042838061,
                    2.3794300875982217,
                    1.1709600167008904
                ],
                "label": "O",
                "properties": {}
            }
        ]
    },
    "spacegroup": {
        "source": "spglib",
        "symbol": "P-6c2",
        "number": 188,
        "point_group": "-6m2",
        "crystal_system": "hexagonal",
        "hall": "P -6c 2"
    },
    "dielectric": {
        "epsilon_ionic": [
            [
                5.09418746,
                0.00013225,
                0.0
            ],
            [
                0.00013225,
                5.09414679,
                -0.0
            ],
            [
                0.0,
                -0.0,
                5.77717459
            ]
        ],
        "epsilon_ionic_avg": 5.32183628,
        "epsilon_ionic_eig": [
            5.09430092924031,
            5.0940333207596895,
            5.77717459
        ],
        "epsilon_electronic": [
            [
                2.91949366,
                -0.0,
                0.0
            ],
            [
                0.0,
                2.91949336,
                -0.0
            ],
            [
                0.0,
                -0.0,
                2.91272106
            ]
        ],
        "epsilon_electronic_avg": 2.9172360266666666,
        "epsilon_electronic_eig": [
            2.91949366,
            2.91949336,
            2.91272106
        ]
    },
    "phonon": {
        "lowest_freq": -0.11117229866352854,
        "frequency": [
            -0.11117229866352854,
            -0.034525764188831486,
            -0.03452576245453146,
            1.8370391979571257,
            1.8751602648434773,
            2.18009625043737,
            2.1800963569373097,
            3.2427853592161853,
            3.2427855250243462,
            3.4307107238375862,
            3.430710780828723,
            3.9359028528706532,
            3.935902887022938,
            4.3654715313026795,
            4.6405037224761365,
            4.640503941043039,
            4.650353399160575,
            4.930707088616629,
            4.9307071456186256,
            5.1982168099129,
            5.870448783901706,
            5.870448783901706,
            6.059315493123723,
            6.059315735131382,
            6.237508182624099,
            6.2375082609887675,
            6.908208698950169,
            7.079840049976076,
            7.0955650894845395,
            7.508392387101659,
            8.209536020363144,
            8.209536124559099,
            8.892013016511,
            8.892013126452417,
            8.980352762113704,
            9.616241755517187,
            10.623828111983595,
            10.636694094880438,
            10.636694324651199,
            11.006088142838276,
            11.00608817614713,
            11.118114155768557,
            11.118114386581203,
            11.277795604592477,
            11.277795647934305,
            12.345010980038518,
            12.985475807745614,
            12.985475977134955,
            13.308207833494711,
            13.308207952864716,
            14.164284723568406,
            14.851505744245152,
            14.851505851210794,
            15.091945286597042,
            15.091945448537816,
            15.218611965806733,
            15.857528511347963,
            16.235351373115183,
            16.358507856130114,
            16.99519887810893,
            18.585929448333538,
            18.58640493683317,
            21.977391755130505,
            21.977391810733128,
            22.01473844246077,
            22.01473849796907,
            27.357658476216848,
            27.357658654887203,
            27.730516824078514,
            27.730517044413503,
            27.851785801184715,
            28.279665506759414,
            28.27966559318198,
            28.555026415848822,
            28.555026544232593,
            28.824765659354554,
            28.919200141653327,
            29.726964643819183,
            30.261771956757674,
            30.261772522091686,
            30.338023482283724,
            30.338024005917323,
            30.61817562002271,
            32.892632025366495
        ]
    },
    "born_effective_charge": {
        "avg_abs_trace": 2.483665,
        "tensors": [
            [
                [
                    2.93304,
                    8e-05,
                    7e-05
                ],
                [
                    0.0,
                    2.93301,
                    0.0
                ],
                [
                    -0.0,
                    -0.0,
                    2.25995
                ]
            ],
            [
                [
                    2.93304,
                    8e-05,
                    -7e-05
                ],
                [
                    0.0,
                    2.93301,
                    0.0
                ],
                [
                    -0.0,
                    -0.0,
                    2.25995
                ]
            ],
            [
                [
                    4.65288,
                    3e-05,
                    0.00019
                ],
                [
                    0.0,
                    4.6529,
                    0.0
                ],
                [
                    -0.0,
                    -0.0,
                    5.18787
                ]
            ],
            [
                [
                    4.65288,
                    3e-05,
                    -0.00019
                ],
                [
                    0.0,
                    4.6529,
                    0.0
                ],
                [
                    -0.0,
                    -0.0,
                    5.18787
                ]
            ],
            [
                [
                    3.64622,
                    0.12202,
                    0.0
                ],
                [
                    0.42526,
                    2.87019,
                    0.0
                ],
                [
                    -1e-05,
                    -0.0,
                    3.32958
                ]
            ],
            [
                [
                    3.30092,
                    -0.6243,
                    0.0
                ],
                [
                    -0.32113,
                    3.21511,
                    0.0
                ],
                [
                    1e-05,
                    -1e-05,
                    3.32958
                ]
            ],
            [
                [
                    2.82709,
                    0.04734,
                    0.0
                ],
                [
                    0.35073,
                    3.68896,
                    0.0
                ],
                [
                    0.0,
                    1e-05,
                    3.32958
                ]
            ],
            [
                [
                    3.30102,
                    0.6243,
                    0.0
                ],
                [
                    0.32113,
                    3.21511,
                    0.0
                ],
                [
                    -1e-05,
                    -1e-05,
                    3.32958
                ]
            ],
            [
                [
                    2.82705,
                    -0.04723,
                    0.0
                ],
                [
                    -0.35073,
                    3.68896,
                    0.0
                ],
                [
                    -0.0,
                    1e-05,
                    3.32958
                ]
            ],
            [
                [
                    3.6463,
                    -0.12207,
                    0.0
                ],
                [
                    -0.42526,
                    2.87019,
                    0.0
                ],
                [
                    1e-05,
                    -0.0,
                    3.32958
                ]
            ],
            [
                [
                    -2.74312,
                    0.48239,
                    0.0
                ],
                [
                    0.36514,
                    -1.45607,
                    0.0
                ],
                [
                    0.0,
                    1e-05,
                    -1.12416
                ]
            ],
            [
                [
                    -1.41068,
                    0.40402,
                    0.0
                ],
                [
                    0.28675,
                    -2.7884,
                    0.0
                ],
                [
                    -1e-05,
                    -0.0,
                    -1.12416
                ]
            ],
            [
                [
                    -2.14447,
                    -0.71107,
                    0.0
                ],
                [
                    -0.82798,
                    -2.05427,
                    0.0
                ],
                [
                    1e-05,
                    -1e-05,
                    -1.12416
                ]
            ],
            [
                [
                    -1.41102,
                    -0.40405,
                    0.0
                ],
                [
                    -0.28675,
                    -2.7884,
                    0.0
                ],
                [
                    1e-05,
                    -0.0,
                    -1.12416
                ]
            ],
            [
                [
                    -2.145,
                    0.71056,
                    0.0
                ],
                [
                    0.82798,
                    -2.05427,
                    0.0
                ],
                [
                    -1e-05,
                    -1e-05,
                    -1.12416
                ]
            ],
            [
                [
                    -2.74307,
                    -0.48279,
                    0.0
                ],
                [
                    -0.36514,
                    -1.45607,
                    0.0
                ],
                [
                    -0.0,
                    1e-05,
                    -1.12416
                ]
            ],
            [
                [
                    -1.6733,
                    -0.31333,
                    -0.73987
                ],
                [
                    -0.36305,
                    -2.01387,
                    -0.40172
                ],
                [
                    -0.78517,
                    -0.48176,
                    -2.34401
                ]
            ],
            [
                [
                    -2.22157,
                    0.04638,
                    0.71773
                ],
                [
                    -0.00317,
                    -1.46553,
                    -0.4398
                ],
                [
                    0.8098,
                    -0.4391,
                    -2.34401
                ]
            ],
            [
                [
                    -1.63588,
                    0.34159,
                    0.02182
                ],
                [
                    0.29178,
                    -2.05132,
                    0.84156
                ],
                [
                    -0.02463,
                    0.92086,
                    -2.34401
                ]
            ],
            [
                [
                    -1.6733,
                    -0.31333,
                    0.73987
                ],
                [
                    -0.36305,
                    -2.01387,
                    0.40172
                ],
                [
                    0.78517,
                    0.48177,
                    -2.34402
                ]
            ],
            [
                [
                    -2.22157,
                    0.04638,
                    -0.71773
                ],
                [
                    -0.00317,
                    -1.46553,
                    0.4398
                ],
                [
                    -0.80981,
                    0.43909,
                    -2.34402
                ]
            ],
            [
                [
                    -1.63588,
                    0.34159,
                    -0.02182
                ],
                [
                    0.29178,
                    -2.05132,
                    -0.84156
                ],
                [
                    0.02464,
                    -0.92086,
                    -2.34402
                ]
            ],
            [
                [
                    -2.22159,
                    -0.04644,
                    -0.7178
                ],
                [
                    0.00317,
                    -1.46553,
                    -0.4398
                ],
                [
                    -0.8098,
                    -0.4391,
                    -2.34401
                ]
            ],
            [
                [
                    -1.63574,
                    -0.34145,
                    -0.02189
                ],
                [
                    -0.29178,
                    -2.05132,
                    0.84156
                ],
                [
                    0.02463,
                    0.92086,
                    -2.34401
                ]
            ],
            [
                [
                    -1.67347,
                    0.31358,
                    0.74007
                ],
                [
                    0.36305,
                    -2.01387,
                    -0.40172
                ],
                [
                    0.78517,
                    -0.48176,
                    -2.34401
                ]
            ],
            [
                [
                    -2.22159,
                    -0.04644,
                    0.7178
                ],
                [
                    0.00317,
                    -1.46553,
                    0.4398
                ],
                [
                    0.80981,
                    0.43909,
                    -2.34402
                ]
            ],
            [
                [
                    -1.63574,
                    -0.34145,
                    0.02189
                ],
                [
                    -0.29178,
                    -2.05132,
                    -0.84156
                ],
                [
                    -0.02464,
                    -0.92086,
                    -2.34402
                ]
            ],
            [
                [
                    -1.67347,
                    0.31358,
                    -0.74007
                ],
                [
                    0.36305,
                    -2.01387,
                    0.40172
                ],
                [
                    -0.78517,
                    0.48177,
                    -2.34402
                ]
            ]
        ]
    },
    "band_gap": 4.7112,
    "is_direct": false,
    "formula": "BaHf(SiO3)3"
}