{
    "mp_id": "mp-1208776",
    "nelements": 4,
    "nsites": 20,
    "elements": [
        "O",
        "Sc",
        "Sr",
        "Ta"
    ],
    "structure": {
        "@module": "pymatgen.core.structure",
        "@class": "Structure",
        "charge": null,
        "lattice": {
            "matrix": [
                [
                    5.68383546,
                    0.0,
                    4.916e-05
                ],
                [
                    0.0,
                    5.69510277,
                    0.0
                ],
                [
                    -5.68934657,
                    0.0,
                    8.02842875
                ]
            ],
            "a": 5.6838354602125944,
            "b": 5.69510277,
            "c": 9.839935598742368,
            "alpha": 90.0,
            "beta": 125.32280041887219,
            "gamma": 90.0,
            "volume": 259.8820488403815
        },
        "sites": [
            {
                "species": [
                    {
                        "element": "Sr",
                        "occu": 1
                    }
                ],
                "abc": [
                    0.75521861,
                    0.0236233,
                    0.25021056
                ],
                "xyz": [
                    2.8690037242561317,
                    0.134537121266541,
                    2.0088347800044675
                ],
                "label": "Sr",
                "properties": {}
            },
            {
                "species": [
                    {
                        "element": "Sr",
                        "occu": 1
                    }
                ],
                "abc": [
                    0.24478139,
                    0.9763767,
                    0.74978944
                ],
                "xyz": [
                    -2.874514834256131,
                    5.560565648733459,
                    6.019643129995533
                ],
                "label": "Sr",
                "properties": {}
            },
            {
                "species": [
                    {
                        "element": "Sr",
                        "occu": 1
                    }
                ],
                "abc": [
                    0.24478139,
                    0.5236233,
                    0.24978944
                ],
                "xyz": [
                    -0.02984154925613125,
                    2.982088506266541,
                    2.0054287549955325
                ],
                "label": "Sr",
                "properties": {}
            },
            {
                "species": [
                    {
                        "element": "Sr",
                        "occu": 1
                    }
                ],
                "abc": [
                    0.75521861,
                    0.4763767,
                    0.75021056
                ],
                "xyz": [
                    0.024330439256131875,
                    2.713014263733459,
                    6.023049155004467
                ],
                "label": "Sr",
                "properties": {}
            },
            {
                "species": [
                    {
                        "element": "Sc",
                        "occu": 1
                    }
                ],
                "abc": [
                    0.0,
                    0.5,
                    0.5
                ],
                "xyz": [
                    -2.844673285,
                    2.847551385,
                    4.014214375
                ],
                "label": "Sc",
                "properties": {}
            },
            {
                "species": [
                    {
                        "element": "Sc",
                        "occu": 1
                    }
                ],
                "abc": [
                    0.0,
                    0.0,
                    0.0
                ],
                "xyz": [
                    0.0,
                    0.0,
                    0.0
                ],
                "label": "Sc",
                "properties": {}
            },
            {
                "species": [
                    {
                        "element": "Ta",
                        "occu": 1
                    }
                ],
                "abc": [
                    0.5,
                    0.5,
                    0.0
                ],
                "xyz": [
                    2.84191773,
                    2.847551385,
                    2.458e-05
                ],
                "label": "Ta",
                "properties": {}
            },
            {
                "species": [
                    {
                        "element": "Ta",
                        "occu": 1
                    }
                ],
                "abc": [
                    0.5,
                    0.0,
                    0.5
                ],
                "xyz": [
                    -0.0027555549999997986,
                    0.0,
                    4.014238955
                ],
                "label": "Ta",
                "properties": {}
            },
            {
                "species": [
                    {
                        "element": "O",
                        "occu": 1
                    }
                ],
                "abc": [
                    0.6808356,
                    0.48825275,
                    0.24441532
                ],
                "xyz": [
                    2.4791940632129235,
                    2.7806495889851175,
                    1.9623044519065458
                ],
                "label": "O",
                "properties": {}
            },
            {
                "species": [
                    {
                        "element": "O",
                        "occu": 1
                    }
                ],
                "abc": [
                    0.3191644,
                    0.51174725,
                    0.75558468
                ],
                "xyz": [
                    -2.4847051732129235,
                    2.9144531810148826,
                    6.066173458093454
                ],
                "label": "O",
                "properties": {}
            },
            {
                "species": [
                    {
                        "element": "O",
                        "occu": 1
                    }
                ],
                "abc": [
                    0.3191644,
                    0.98825275,
                    0.25558468
                ],
                "xyz": [
                    0.35996811178707655,
                    5.628200973985118,
                    2.051959083093454
                ],
                "label": "O",
                "properties": {}
            },
            {
                "species": [
                    {
                        "element": "O",
                        "occu": 1
                    }
                ],
                "abc": [
                    0.6808356,
                    0.01174725,
                    0.74441532
                ],
                "xyz": [
                    -0.3654792217870759,
                    0.06690179601488251,
                    5.9765188269065455
                ],
                "label": "O",
                "properties": {}
            },
            {
                "species": [
                    {
                        "element": "O",
                        "occu": 1
                    }
                ],
                "abc": [
                    0.19463369,
                    0.7834974,
                    0.46704657
                ],
                "xyz": [
                    -1.550923932127117,
                    4.462098213027798,
                    3.749659678369088
                ],
                "label": "O",
                "properties": {}
            },
            {
                "species": [
                    {
                        "element": "O",
                        "occu": 1
                    }
                ],
                "abc": [
                    0.80536631,
                    0.2165026,
                    0.53295343
                ],
                "xyz": [
                    1.5454128221271182,
                    1.233004556972202,
                    4.278818231630911
                ],
                "label": "O",
                "properties": {}
            },
            {
                "species": [
                    {
                        "element": "O",
                        "occu": 1
                    }
                ],
                "abc": [
                    0.80536631,
                    0.2834974,
                    0.03295343
                ],
                "xyz": [
                    4.390086107127118,
                    1.6145468280277981,
                    0.26460385663091207
                ],
                "label": "O",
                "properties": {}
            },
            {
                "species": [
                    {
                        "element": "O",
                        "occu": 1
                    }
                ],
                "abc": [
                    0.19463369,
                    0.7165026,
                    0.96704657
                ],
                "xyz": [
                    -4.395597217127118,
                    4.080555941972202,
                    7.763874053369088
                ],
                "label": "O",
                "properties": {}
            },
            {
                "species": [
                    {
                        "element": "O",
                        "occu": 1
                    }
                ],
                "abc": [
                    0.25053409,
                    0.27336172,
                    0.46613797
                ],
                "xyz": [
                    -1.2280259160854314,
                    1.5568230887839642,
                    3.742367796070502
                ],
                "label": "O",
                "properties": {}
            },
            {
                "species": [
                    {
                        "element": "O",
                        "occu": 1
                    }
                ],
                "abc": [
                    0.74946591,
                    0.72663828,
                    0.53386203
                ],
                "xyz": [
                    1.2225148060854316,
                    4.138279681216035,
                    4.286110113929498
                ],
                "label": "O",
                "properties": {}
            },
            {
                "species": [
                    {
                        "element": "O",
                        "occu": 1
                    }
                ],
                "abc": [
                    0.74946591,
                    0.77336172,
                    0.03386203
                ],
                "xyz": [
                    4.0671880910854314,
                    4.404374473783965,
                    0.2718957389294981
                ],
                "label": "O",
                "properties": {}
            },
            {
                "species": [
                    {
                        "element": "O",
                        "occu": 1
                    }
                ],
                "abc": [
                    0.25053409,
                    0.22663828,
                    0.96613797
                ],
                "xyz": [
                    -4.072699201085431,
                    1.2907282962160356,
                    7.756582171070502
                ],
                "label": "O",
                "properties": {}
            }
        ]
    },
    "spacegroup": {
        "source": "spglib",
        "symbol": "P2_1/c",
        "number": 14,
        "point_group": "2/m",
        "crystal_system": "monoclinic",
        "hall": "-P 2ybc"
    },
    "dielectric": {
        "epsilon_ionic": [
            [
                20.90048343,
                -1e-08,
                -0.22035975
            ],
            [
                -1e-08,
                24.95538843,
                0.0
            ],
            [
                -0.22035975,
                0.0,
                23.45039514
            ]
        ],
        "epsilon_ionic_avg": 23.102089000000003,
        "epsilon_ionic_eig": [
            20.88158038557593,
            23.469298184424073,
            24.955388429999996
        ],
        "epsilon_electronic": [
            [
                4.6558979,
                0.0,
                -0.00762072
            ],
            [
                0.0,
                4.62113987,
                0.0
            ],
            [
                -0.00761222,
                0.0,
                4.6191345
            ]
        ],
        "epsilon_electronic_avg": 4.632057423333333,
        "epsilon_electronic_eig": [
            4.657413372967244,
            4.617619027032757,
            4.62113987
        ]
    },
    "phonon": {
        "lowest_freq": -0.021846195878705482,
        "frequency": [
            -0.021846195878705482,
            -0.019235066947438696,
            -0.01251310336309053,
            2.5332261605293174,
            2.735620187201549,
            2.8361421951452663,
            3.2305914161496774,
            3.2901829004503025,
            3.357225058720666,
            3.488769808182295,
            3.6483257814457914,
            3.773355545148868,
            3.8785883570483946,
            3.999538550780676,
            4.083658977988015,
            4.100249947795332,
            4.235487836860305,
            4.3358038419742755,
            4.561928071590299,
            4.9469684507370895,
            5.001163485680484,
            6.7861599258112095,
            6.85122430032947,
            6.91683547452044,
            7.045201672042258,
            7.098621049727695,
            7.258904759722444,
            7.335453259988037,
            7.572446600256501,
            7.9373192858069626,
            8.067616095764436,
            8.22568303259642,
            8.416409851021683,
            8.638921649806575,
            8.656847598601852,
            9.547106240181922,
            9.909772162193509,
            10.275996195572468,
            10.437049848672078,
            10.502295681798625,
            10.835791730194842,
            11.646197033018383,
            11.983481579508389,
            12.087238920093565,
            12.359678960933028,
            12.55991041229488,
            13.326565930727401,
            13.998756373988972,
            16.22251734005885,
            16.324145729292137,
            16.525709173881356,
            16.720931174246278,
            16.735476150727123,
            16.9794094045114,
            17.10957838499038,
            17.165730867489557,
            17.32338101904127,
            22.049792444568965,
            23.578258386719423,
            24.264684783746326
        ]
    },
    "born_effective_charge": {
        "avg_abs_trace": 3.3119303333333336,
        "tensors": [
            [
                [
                    2.54729,
                    0.11065,
                    -0.03457
                ],
                [
                    0.11722,
                    2.47259,
                    -0.01593
                ],
                [
                    0.0238,
                    -0.03503,
                    2.45755
                ]
            ],
            [
                [
                    2.54725,
                    0.11079,
                    -0.03452
                ],
                [
                    0.1176,
                    2.47256,
                    -0.01583
                ],
                [
                    0.02387,
                    -0.03503,
                    2.45753
                ]
            ],
            [
                [
                    2.54725,
                    -0.11079,
                    -0.03452
                ],
                [
                    -0.11722,
                    2.47259,
                    0.01593
                ],
                [
                    0.02387,
                    0.03503,
                    2.45753
                ]
            ],
            [
                [
                    2.54729,
                    -0.11065,
                    -0.03457
                ],
                [
                    -0.1176,
                    2.47256,
                    0.01583
                ],
                [
                    0.0238,
                    0.03503,
                    2.45755
                ]
            ],
            [
                [
                    4.8938,
                    -0.25214,
                    0.41296
                ],
                [
                    0.18989,
                    4.85066,
                    0.0476
                ],
                [
                    -0.32716,
                    0.08489,
                    4.88192
                ]
            ],
            [
                [
                    4.8938,
                    0.25214,
                    0.41296
                ],
                [
                    -0.18989,
                    4.85066,
                    -0.0476
                ],
                [
                    -0.32716,
                    -0.08489,
                    4.88192
                ]
            ],
            [
                [
                    6.72539,
                    -0.22488,
                    -0.3606
                ],
                [
                    0.1152,
                    6.65608,
                    -0.06792
                ],
                [
                    0.22584,
                    -0.07951,
                    6.71634
                ]
            ],
            [
                [
                    6.72539,
                    0.22488,
                    -0.3606
                ],
                [
                    -0.1152,
                    6.65608,
                    0.06792
                ],
                [
                    0.22584,
                    0.07951,
                    6.71634
                ]
            ],
            [
                [
                    -1.95343,
                    -0.01071,
                    -0.18112
                ],
                [
                    -0.05921,
                    -1.78654,
                    0.04078
                ],
                [
                    -0.18323,
                    0.04648,
                    -4.54571
                ]
            ],
            [
                [
                    -1.95341,
                    -0.01074,
                    -0.18118
                ],
                [
                    -0.05945,
                    -1.78649,
                    0.04104
                ],
                [
                    -0.18333,
                    0.0465,
                    -4.54562
                ]
            ],
            [
                [
                    -1.95341,
                    0.01074,
                    -0.18118
                ],
                [
                    0.05921,
                    -1.78654,
                    -0.04078
                ],
                [
                    -0.18333,
                    -0.0465,
                    -4.54562
                ]
            ],
            [
                [
                    -1.95343,
                    0.01071,
                    -0.18112
                ],
                [
                    0.05945,
                    -1.78649,
                    -0.04104
                ],
                [
                    -0.18323,
                    -0.04648,
                    -4.54571
                ]
            ],
            [
                [
                    -3.31315,
                    1.32343,
                    0.09056
                ],
                [
                    1.34524,
                    -3.10444,
                    -0.06249
                ],
                [
                    0.10438,
                    -0.03331,
                    -1.85389
                ]
            ],
            [
                [
                    -3.31317,
                    1.3234,
                    0.09055
                ],
                [
                    1.34506,
                    -3.10451,
                    -0.06224
                ],
                [
                    0.10437,
                    -0.03327,
                    -1.85392
                ]
            ],
            [
                [
                    -3.31317,
                    -1.3234,
                    0.09055
                ],
                [
                    -1.34524,
                    -3.10444,
                    0.06249
                ],
                [
                    0.10437,
                    0.03327,
                    -1.85392
                ]
            ],
            [
                [
                    -3.31315,
                    -1.32343,
                    0.09056
                ],
                [
                    -1.34506,
                    -3.10451,
                    0.06224
                ],
                [
                    0.10438,
                    0.03331,
                    -1.85389
                ]
            ],
            [
                [
                    -3.09029,
                    -1.32371,
                    0.09897
                ],
                [
                    -1.35694,
                    -3.33485,
                    0.15047
                ],
                [
                    0.10576,
                    0.14899,
                    -1.85711
                ]
            ],
            [
                [
                    -3.09027,
                    -1.32369,
                    0.09895
                ],
                [
                    -1.35653,
                    -3.33506,
                    0.15078
                ],
                [
                    0.10569,
                    0.14897,
                    -1.85709
                ]
            ],
            [
                [
                    -3.09027,
                    1.32369,
                    0.09895
                ],
                [
                    1.35694,
                    -3.33485,
                    -0.15047
                ],
                [
                    0.10569,
                    -0.14897,
                    -1.85709
                ]
            ],
            [
                [
                    -3.09029,
                    1.32371,
                    0.09897
                ],
                [
                    1.35653,
                    -3.33506,
                    -0.15078
                ],
                [
                    0.10576,
                    -0.14899,
                    -1.85711
                ]
            ]
        ]
    },
    "band_gap": 3.6455,
    "is_direct": false,
    "formula": "Sr2ScTaO6"
}