{
    "mp_id": "mp-1019612",
    "nelements": 3,
    "nsites": 32,
    "elements": [
        "Cs",
        "O",
        "Zn"
    ],
    "structure": {
        "@module": "pymatgen.core.structure",
        "@class": "Structure",
        "charge": null,
        "lattice": {
            "matrix": [
                [
                    7.06521906,
                    0.0,
                    -0.00135343
                ],
                [
                    0.0,
                    18.39989792,
                    0.0
                ],
                [
                    -3.01393015,
                    0.0,
                    6.2695208
                ]
            ],
            "a": 7.065219189633118,
            "b": 18.39989792,
            "c": 6.956339986710803,
            "alpha": 90.0,
            "beta": 115.68584250502357,
            "gamma": 90.0,
            "volume": 814.958318987176
        },
        "sites": [
            {
                "species": [
                    {
                        "element": "Cs",
                        "occu": 1
                    }
                ],
                "abc": [
                    0.1540436,
                    0.92462811,
                    0.65578827
                ],
                "xyz": [
                    -0.8881482601783244,
                    17.013062837962533,
                    4.111269711931468
                ],
                "label": "Cs",
                "properties": {}
            },
            {
                "species": [
                    {
                        "element": "Cs",
                        "occu": 1
                    }
                ],
                "abc": [
                    0.8459564,
                    0.42462811,
                    0.84421173
                ],
                "xyz": [
                    3.4324720951783245,
                    7.8131138779625315,
                    5.291658058068532
                ],
                "label": "Cs",
                "properties": {}
            },
            {
                "species": [
                    {
                        "element": "Cs",
                        "occu": 1
                    }
                ],
                "abc": [
                    0.8459564,
                    0.07537189,
                    0.34421173
                ],
                "xyz": [
                    4.939437170178325,
                    1.3868350820374689,
                    2.156897658068532
                ],
                "label": "Cs",
                "properties": {}
            },
            {
                "species": [
                    {
                        "element": "Cs",
                        "occu": 1
                    }
                ],
                "abc": [
                    0.1540436,
                    0.57537189,
                    0.15578827
                ],
                "xyz": [
                    0.6188168148216757,
                    10.586784042037468,
                    0.976509311931468
                ],
                "label": "Cs",
                "properties": {}
            },
            {
                "species": [
                    {
                        "element": "Cs",
                        "occu": 1
                    }
                ],
                "abc": [
                    0.20925073,
                    0.30392668,
                    0.67314243
                ],
                "xyz": [
                    -0.5504020191063508,
                    5.592219887164506,
                    4.21999726003204
                ],
                "label": "Cs",
                "properties": {}
            },
            {
                "species": [
                    {
                        "element": "Cs",
                        "occu": 1
                    }
                ],
                "abc": [
                    0.79074927,
                    0.80392668,
                    0.82685757
                ],
                "xyz": [
                    3.0947258541063505,
                    14.792168847164506,
                    5.18293050996796
                ],
                "label": "Cs",
                "properties": {}
            },
            {
                "species": [
                    {
                        "element": "Cs",
                        "occu": 1
                    }
                ],
                "abc": [
                    0.79074927,
                    0.69607332,
                    0.32685757
                ],
                "xyz": [
                    4.601690929106351,
                    12.807678032835495,
                    2.0481701099679595
                ],
                "label": "Cs",
                "properties": {}
            },
            {
                "species": [
                    {
                        "element": "Cs",
                        "occu": 1
                    }
                ],
                "abc": [
                    0.20925073,
                    0.19607332,
                    0.17314243
                ],
                "xyz": [
                    0.9565630558936492,
                    3.6077290728354945,
                    1.0852368600320401
                ],
                "label": "Cs",
                "properties": {}
            },
            {
                "species": [
                    {
                        "element": "Cs",
                        "occu": 1
                    }
                ],
                "abc": [
                    0.29358593,
                    0.49902164,
                    0.70780634
                ],
                "xyz": [
                    -0.05902996010332506,
                    9.18194723587099,
                    4.437209222996631
                ],
                "label": "Cs",
                "properties": {}
            },
            {
                "species": [
                    {
                        "element": "Cs",
                        "occu": 1
                    }
                ],
                "abc": [
                    0.70641407,
                    0.99902164,
                    0.79219366
                ],
                "xyz": [
                    2.603353795103325,
                    18.38189619587099,
                    4.965718547003368
                ],
                "label": "Cs",
                "properties": {}
            },
            {
                "species": [
                    {
                        "element": "Cs",
                        "occu": 1
                    }
                ],
                "abc": [
                    0.70641407,
                    0.50097836,
                    0.29219366
                ],
                "xyz": [
                    4.110318870103326,
                    9.217950684129011,
                    1.830958147003368
                ],
                "label": "Cs",
                "properties": {}
            },
            {
                "species": [
                    {
                        "element": "Cs",
                        "occu": 1
                    }
                ],
                "abc": [
                    0.29358593,
                    0.00097836,
                    0.20780634
                ],
                "xyz": [
                    1.4479351148966746,
                    0.0180017241290112,
                    1.302448822996632
                ],
                "label": "Cs",
                "properties": {}
            },
            {
                "species": [
                    {
                        "element": "Cs",
                        "occu": 1
                    }
                ],
                "abc": [
                    0.6693017,
                    0.19450675,
                    0.71562627
                ],
                "xyz": [
                    2.571915536445361,
                    3.5789043447509603,
                    4.485727931791585
                ],
                "label": "Cs",
                "properties": {}
            },
            {
                "species": [
                    {
                        "element": "Cs",
                        "occu": 1
                    }
                ],
                "abc": [
                    0.3306983,
                    0.69450675,
                    0.78437373
                ],
                "xyz": [
                    -0.02759170144536105,
                    12.77885330475096,
                    4.917199838208415
                ],
                "label": "Cs",
                "properties": {}
            },
            {
                "species": [
                    {
                        "element": "Cs",
                        "occu": 1
                    }
                ],
                "abc": [
                    0.3306983,
                    0.80549325,
                    0.28437373
                ],
                "xyz": [
                    1.4793733735546388,
                    14.820993575249041,
                    1.7824394382084148
                ],
                "label": "Cs",
                "properties": {}
            },
            {
                "species": [
                    {
                        "element": "Cs",
                        "occu": 1
                    }
                ],
                "abc": [
                    0.6693017,
                    0.30549325,
                    0.21562627
                ],
                "xyz": [
                    4.078880611445362,
                    5.6210446152490405,
                    1.350967531791585
                ],
                "label": "Cs",
                "properties": {}
            },
            {
                "species": [
                    {
                        "element": "Zn",
                        "occu": 1
                    }
                ],
                "abc": [
                    0.28411858,
                    0.11639086,
                    0.78651299
                ],
                "xyz": [
                    -0.3631352072115135,
                    2.141579942821011,
                    4.930675015665462
                ],
                "label": "Zn",
                "properties": {}
            },
            {
                "species": [
                    {
                        "element": "Zn",
                        "occu": 1
                    }
                ],
                "abc": [
                    0.71588142,
                    0.61639086,
                    0.71348701
                ],
                "xyz": [
                    2.907459042211514,
                    11.341528902821011,
                    4.472252754334537
                ],
                "label": "Zn",
                "properties": {}
            },
            {
                "species": [
                    {
                        "element": "Zn",
                        "occu": 1
                    }
                ],
                "abc": [
                    0.71588142,
                    0.88360914,
                    0.21348701
                ],
                "xyz": [
                    4.414424117211515,
                    16.25831797717899,
                    1.3374923543345372
                ],
                "label": "Zn",
                "properties": {}
            },
            {
                "species": [
                    {
                        "element": "Zn",
                        "occu": 1
                    }
                ],
                "abc": [
                    0.28411858,
                    0.38360914,
                    0.28651299
                ],
                "xyz": [
                    1.1438298677884864,
                    7.05836901717899,
                    1.7959146156654626
                ],
                "label": "Zn",
                "properties": {}
            },
            {
                "species": [
                    {
                        "element": "O",
                        "occu": 1
                    }
                ],
                "abc": [
                    0.03814438,
                    0.09244659,
                    0.80898508
                ],
                "xyz": [
                    -2.168726122904279,
                    1.7010078190520928,
                    5.07189716020144
                ],
                "label": "O",
                "properties": {}
            },
            {
                "species": [
                    {
                        "element": "O",
                        "occu": 1
                    }
                ],
                "abc": [
                    0.96185562,
                    0.59244659,
                    0.69101492
                ],
                "xyz": [
                    4.71304995790428,
                    10.900956779052093,
                    4.3310306097985585
                ],
                "label": "O",
                "properties": {}
            },
            {
                "species": [
                    {
                        "element": "O",
                        "occu": 1
                    }
                ],
                "abc": [
                    0.96185562,
                    0.90755341,
                    0.19101492
                ],
                "xyz": [
                    6.22001503290428,
                    16.698890100947906,
                    1.1962702097985594
                ],
                "label": "O",
                "properties": {}
            },
            {
                "species": [
                    {
                        "element": "O",
                        "occu": 1
                    }
                ],
                "abc": [
                    0.03814438,
                    0.40755341,
                    0.30898508
                ],
                "xyz": [
                    -0.6617610479042793,
                    7.498941140947908,
                    1.9371367602014404
                ],
                "label": "O",
                "properties": {}
            },
            {
                "species": [
                    {
                        "element": "O",
                        "occu": 1
                    }
                ],
                "abc": [
                    0.30651288,
                    0.09951147,
                    0.53237788
                ],
                "xyz": [
                    0.5610308981864107,
                    1.8310008898691426,
                    3.337339348392725
                ],
                "label": "O",
                "properties": {}
            },
            {
                "species": [
                    {
                        "element": "O",
                        "occu": 1
                    }
                ],
                "abc": [
                    0.69348712,
                    0.59951147,
                    0.96762212
                ],
                "xyz": [
                    1.983292936813589,
                    11.030949849869144,
                    6.0655884216072735
                ],
                "label": "O",
                "properties": {}
            },
            {
                "species": [
                    {
                        "element": "O",
                        "occu": 1
                    }
                ],
                "abc": [
                    0.69348712,
                    0.90048853,
                    0.46762212
                ],
                "xyz": [
                    3.490258011813589,
                    16.568897030130856,
                    2.930828021607274
                ],
                "label": "O",
                "properties": {}
            },
            {
                "species": [
                    {
                        "element": "O",
                        "occu": 1
                    }
                ],
                "abc": [
                    0.30651288,
                    0.40048853,
                    0.03237788
                ],
                "xyz": [
                    2.067995973186411,
                    7.368948070130858,
                    0.20257894839272558
                ],
                "label": "O",
                "properties": {}
            },
            {
                "species": [
                    {
                        "element": "O",
                        "occu": 1
                    }
                ],
                "abc": [
                    0.50399652,
                    0.33727628,
                    0.51404018
                ],
                "xyz": [
                    2.011564622464244,
                    6.205849122837337,
                    3.22210347653568
                ],
                "label": "O",
                "properties": {}
            },
            {
                "species": [
                    {
                        "element": "O",
                        "occu": 1
                    }
                ],
                "abc": [
                    0.49600348,
                    0.83727628,
                    0.98595982
                ],
                "xyz": [
                    0.5327592125357556,
                    15.405798082837338,
                    6.18082429346432
                ],
                "label": "O",
                "properties": {}
            },
            {
                "species": [
                    {
                        "element": "O",
                        "occu": 1
                    }
                ],
                "abc": [
                    0.49600348,
                    0.66272372,
                    0.48595982
                ],
                "xyz": [
                    2.0397242875357557,
                    12.194048797162663,
                    3.046063893464319
                ],
                "label": "O",
                "properties": {}
            },
            {
                "species": [
                    {
                        "element": "O",
                        "occu": 1
                    }
                ],
                "abc": [
                    0.50399652,
                    0.16272372,
                    0.01404018
                ],
                "xyz": [
                    3.518529697464244,
                    2.994099837162662,
                    0.0873430765356804
                ],
                "label": "O",
                "properties": {}
            }
        ]
    },
    "spacegroup": {
        "source": "spglib",
        "symbol": "P2_1/c",
        "number": 14,
        "point_group": "2/m",
        "crystal_system": "monoclinic",
        "hall": "-P 2ybc"
    },
    "dielectric": {
        "epsilon_ionic": [
            [
                6.74324377,
                0.0,
                -0.03402996
            ],
            [
                0.0,
                8.54947943,
                3e-08
            ],
            [
                -0.03402996,
                3e-08,
                7.57775662
            ]
        ],
        "epsilon_ionic_avg": 7.623493273333332,
        "epsilon_ionic_eig": [
            6.741858388223155,
            7.579142001776844,
            8.549479429999998
        ],
        "epsilon_electronic": [
            [
                3.98585557,
                0.0,
                -0.14012961
            ],
            [
                0.0,
                3.6838981,
                0.0
            ],
            [
                -0.14012831,
                0.0,
                3.9021883
            ]
        ],
        "epsilon_electronic_avg": 3.85731399,
        "epsilon_electronic_eig": [
            4.090262074659303,
            3.7977817953406974,
            3.6838981
        ]
    },
    "phonon": {
        "lowest_freq": -0.10615819801593616,
        "frequency": [
            -0.10615819801593616,
            -0.10600731861044767,
            -0.059905603833112685,
            0.5453978532070591,
            0.723555194504913,
            0.80343605997671,
            0.8457288972129113,
            0.9756504065459569,
            1.0577430406200066,
            1.0851512668853953,
            1.1066392120202762,
            1.1677498283539482,
            1.255693870019029,
            1.2887119686475714,
            1.3505399390774575,
            1.4316418137196878,
            1.4891665443276052,
            1.502363191827304,
            1.5661812016844883,
            1.6786779227605133,
            1.710010863269371,
            1.723951304277844,
            1.7328465963541906,
            1.7342689126165147,
            1.8365864993777663,
            1.8485887671737786,
            1.8764928377630967,
            1.915711850188353,
            1.9981584641845138,
            2.0418801350071325,
            2.103514881252084,
            2.105251693384842,
            2.117129070630256,
            2.2008924845896805,
            2.2102884116537895,
            2.253176381775209,
            2.377702379584989,
            2.388054877998987,
            2.4087615937627116,
            2.4699244260673576,
            2.473014249675269,
            2.5618297472935905,
            2.591187752137728,
            2.6412483715930772,
            2.724446923479881,
            2.7375811659923595,
            2.7449325386298793,
            2.8904717900209467,
            3.00469838190984,
            3.0566025379410307,
            3.10529914866558,
            3.343819178160679,
            3.356996125877332,
            3.443601353128064,
            3.4673332336623677,
            3.577499836394231,
            3.721031244915577,
            3.8037148525519138,
            3.9791308087247828,
            3.982876867926173,
            4.031826006516507,
            4.113448717489033,
            4.207113799394557,
            4.227970342173482,
            4.274781424776078,
            4.481681717252825,
            4.489124748596655,
            4.935012777715645,
            4.96410695661655,
            4.983765278651075,
            5.205961910597571,
            5.241095936878841,
            6.427034695115379,
            6.888498899500786,
            7.073416378381547,
            7.091477002509709,
            7.139982756248693,
            7.695022919502911,
            7.715702320945506,
            7.85775730156351,
            7.863015812392105,
            8.523796503472017,
            8.54192333984271,
            8.5473830370659,
            14.134630562184999,
            14.202018008983199,
            14.226690673865757,
            14.30810479114186,
            14.432242705803557,
            14.600595893879108,
            14.714916830893802,
            14.753557231882404,
            15.637078315168207,
            15.66453919401803,
            15.669250873871281,
            15.689154286574505
        ]
    },
    "born_effective_charge": {
        "avg_abs_trace": 1.6590712500000002,
        "tensors": [
            [
                [
                    1.33748,
                    -0.10798,
                    0.29203
                ],
                [
                    -0.01785,
                    1.05433,
                    -0.01692
                ],
                [
                    0.28351,
                    -0.10071,
                    1.58815
                ]
            ],
            [
                [
                    1.33711,
                    0.10813,
                    0.29217
                ],
                [
                    0.01785,
                    1.05433,
                    0.01692
                ],
                [
                    0.28384,
                    0.10072,
                    1.58812
                ]
            ],
            [
                [
                    1.33711,
                    -0.10813,
                    0.29217
                ],
                [
                    -0.01782,
                    1.05432,
                    -0.01688
                ],
                [
                    0.28384,
                    -0.10072,
                    1.58812
                ]
            ],
            [
                [
                    1.33748,
                    0.10798,
                    0.29203
                ],
                [
                    0.01782,
                    1.05432,
                    0.01688
                ],
                [
                    0.28351,
                    0.10071,
                    1.58815
                ]
            ],
            [
                [
                    1.19361,
                    0.00237,
                    -0.32457
                ],
                [
                    0.01701,
                    1.27901,
                    -0.15115
                ],
                [
                    -0.31796,
                    -0.07821,
                    1.49515
                ]
            ],
            [
                [
                    1.19351,
                    -0.0023,
                    -0.32468
                ],
                [
                    -0.01701,
                    1.27901,
                    0.15115
                ],
                [
                    -0.31794,
                    0.07797,
                    1.49514
                ]
            ],
            [
                [
                    1.19351,
                    0.0023,
                    -0.32468
                ],
                [
                    0.01701,
                    1.27902,
                    -0.15115
                ],
                [
                    -0.31794,
                    -0.07797,
                    1.49514
                ]
            ],
            [
                [
                    1.19361,
                    -0.00237,
                    -0.32457
                ],
                [
                    -0.01701,
                    1.27902,
                    0.15115
                ],
                [
                    -0.31796,
                    0.07821,
                    1.49515
                ]
            ],
            [
                [
                    1.27345,
                    -0.00648,
                    -0.00831
                ],
                [
                    -0.00749,
                    1.41993,
                    0.00144
                ],
                [
                    -0.00476,
                    0.01381,
                    1.28027
                ]
            ],
            [
                [
                    1.27348,
                    0.00654,
                    -0.00834
                ],
                [
                    0.00749,
                    1.41993,
                    -0.00144
                ],
                [
                    -0.00462,
                    -0.01363,
                    1.28007
                ]
            ],
            [
                [
                    1.27348,
                    -0.00654,
                    -0.00834
                ],
                [
                    -0.00751,
                    1.41989,
                    0.00152
                ],
                [
                    -0.00462,
                    0.01363,
                    1.28007
                ]
            ],
            [
                [
                    1.27345,
                    0.00648,
                    -0.00831
                ],
                [
                    0.00751,
                    1.41989,
                    -0.00152
                ],
                [
                    -0.00476,
                    -0.01381,
                    1.28027
                ]
            ],
            [
                [
                    1.45724,
                    -0.01004,
                    -0.03189
                ],
                [
                    0.05277,
                    1.36338,
                    -0.15293
                ],
                [
                    -0.04213,
                    -0.19649,
                    1.07064
                ]
            ],
            [
                [
                    1.45705,
                    0.01006,
                    -0.03216
                ],
                [
                    -0.05277,
                    1.36338,
                    0.15293
                ],
                [
                    -0.04199,
                    0.19621,
                    1.07103
                ]
            ],
            [
                [
                    1.45705,
                    -0.01006,
                    -0.03216
                ],
                [
                    0.05278,
                    1.36341,
                    -0.15292
                ],
                [
                    -0.04199,
                    -0.19621,
                    1.07103
                ]
            ],
            [
                [
                    1.45724,
                    0.01004,
                    -0.03189
                ],
                [
                    -0.05278,
                    1.36341,
                    0.15292
                ],
                [
                    -0.04213,
                    0.19649,
                    1.07064
                ]
            ],
            [
                [
                    1.8222,
                    0.40289,
                    -0.26054
                ],
                [
                    0.50105,
                    0.5392,
                    0.58835
                ],
                [
                    -0.20606,
                    0.55602,
                    1.7352
                ]
            ],
            [
                [
                    1.82212,
                    -0.40276,
                    -0.26055
                ],
                [
                    -0.50105,
                    0.5392,
                    -0.58835
                ],
                [
                    -0.2061,
                    -0.55591,
                    1.73503
                ]
            ],
            [
                [
                    1.82212,
                    0.40276,
                    -0.26055
                ],
                [
                    0.50103,
                    0.53918,
                    0.58834
                ],
                [
                    -0.2061,
                    0.55591,
                    1.73503
                ]
            ],
            [
                [
                    1.8222,
                    -0.40289,
                    -0.26054
                ],
                [
                    -0.50103,
                    0.53918,
                    -0.58834
                ],
                [
                    -0.20606,
                    -0.55602,
                    1.7352
                ]
            ],
            [
                [
                    -2.55969,
                    -0.17817,
                    -0.0497
                ],
                [
                    -0.31678,
                    -1.83601,
                    -0.21694
                ],
                [
                    0.0247,
                    -0.13791,
                    -2.20065
                ]
            ],
            [
                [
                    -2.55969,
                    0.17836,
                    -0.0497
                ],
                [
                    0.31678,
                    -1.83601,
                    0.21694
                ],
                [
                    0.0253,
                    0.13787,
                    -2.20069
                ]
            ],
            [
                [
                    -2.55969,
                    -0.17836,
                    -0.0497
                ],
                [
                    -0.31664,
                    -1.83597,
                    -0.21695
                ],
                [
                    0.0253,
                    -0.13787,
                    -2.20069
                ]
            ],
            [
                [
                    -2.55969,
                    0.17817,
                    -0.0497
                ],
                [
                    0.31664,
                    -1.83597,
                    0.21695
                ],
                [
                    0.0247,
                    0.13791,
                    -2.20065
                ]
            ],
            [
                [
                    -2.19464,
                    -0.14933,
                    0.25851
                ],
                [
                    -0.15152,
                    -1.86637,
                    -0.30669
                ],
                [
                    0.15958,
                    -0.19455,
                    -2.53331
                ]
            ],
            [
                [
                    -2.19484,
                    0.14909,
                    0.25867
                ],
                [
                    0.15152,
                    -1.86637,
                    0.30669
                ],
                [
                    0.15951,
                    0.19452,
                    -2.53356
                ]
            ],
            [
                [
                    -2.19484,
                    -0.14909,
                    0.25867
                ],
                [
                    -0.15149,
                    -1.86637,
                    -0.30671
                ],
                [
                    0.15951,
                    -0.19452,
                    -2.53356
                ]
            ],
            [
                [
                    -2.19464,
                    0.14933,
                    0.25851
                ],
                [
                    0.15149,
                    -1.86637,
                    0.30671
                ],
                [
                    0.15958,
                    0.19455,
                    -2.53331
                ]
            ],
            [
                [
                    -2.32926,
                    0.07527,
                    0.12444
                ],
                [
                    0.1174,
                    -1.95347,
                    0.22961
                ],
                [
                    0.10249,
                    0.20893,
                    -2.43524
                ]
            ],
            [
                [
                    -2.32913,
                    -0.07518,
                    0.12461
                ],
                [
                    -0.1174,
                    -1.95347,
                    -0.22961
                ],
                [
                    0.10264,
                    -0.20903,
                    -2.43534
                ]
            ],
            [
                [
                    -2.32913,
                    0.07518,
                    0.12461
                ],
                [
                    0.11742,
                    -1.95347,
                    0.22964
                ],
                [
                    0.10264,
                    0.20903,
                    -2.43534
                ]
            ],
            [
                [
                    -2.32926,
                    -0.07527,
                    0.12444
                ],
                [
                    -0.11742,
                    -1.95347,
                    -0.22964
                ],
                [
                    0.10249,
                    -0.20893,
                    -2.43524
                ]
            ]
        ]
    },
    "band_gap": 1.9834,
    "is_direct": false,
    "formula": "Cs4ZnO3"
}