{
    "mp_id": "mp-1195471",
    "nelements": 3,
    "nsites": 34,
    "elements": [
        "K",
        "O",
        "Ta"
    ],
    "structure": {
        "@module": "pymatgen.core.structure",
        "@class": "Structure",
        "charge": null,
        "lattice": {
            "matrix": [
                [
                    3.15857119,
                    1.82360196,
                    12.39156877
                ],
                [
                    -3.15857119,
                    1.82360196,
                    12.39156877
                ],
                [
                    0.0,
                    -3.64720392,
                    12.39156877
                ]
            ],
            "a": 12.917161942642554,
            "b": 12.917161942642554,
            "c": 12.917161956703286,
            "alpha": 28.30754909850304,
            "beta": 28.30754909850304,
            "gamma": 28.307548719665423,
            "volume": 428.25087787282774
        },
        "sites": [
            {
                "species": [
                    {
                        "element": "K",
                        "occu": 1
                    }
                ],
                "abc": [
                    0.82622322,
                    0.82622322,
                    0.82622322
                ],
                "xyz": [
                    0.0,
                    0.0,
                    30.714605550002517
                ],
                "label": "K",
                "properties": {}
            },
            {
                "species": [
                    {
                        "element": "K",
                        "occu": 1
                    }
                ],
                "abc": [
                    0.32622322,
                    0.32622322,
                    0.32622322
                ],
                "xyz": [
                    0.0,
                    0.0,
                    12.127252395002518
                ],
                "label": "K",
                "properties": {}
            },
            {
                "species": [
                    {
                        "element": "K",
                        "occu": 1
                    }
                ],
                "abc": [
                    0.17377678,
                    0.17377678,
                    0.17377678
                ],
                "xyz": [
                    0.0,
                    0.0,
                    6.460100759997482
                ],
                "label": "K",
                "properties": {}
            },
            {
                "species": [
                    {
                        "element": "K",
                        "occu": 1
                    }
                ],
                "abc": [
                    0.67377678,
                    0.67377678,
                    0.67377678
                ],
                "xyz": [
                    0.0,
                    0.0,
                    25.047453914997476
                ],
                "label": "K",
                "properties": {}
            },
            {
                "species": [
                    {
                        "element": "Ta",
                        "occu": 1
                    }
                ],
                "abc": [
                    0.5,
                    0.5,
                    0.5
                ],
                "xyz": [
                    0.0,
                    0.0,
                    18.587353155
                ],
                "label": "Ta",
                "properties": {}
            },
            {
                "species": [
                    {
                        "element": "Ta",
                        "occu": 1
                    }
                ],
                "abc": [
                    0.0,
                    0.0,
                    0.0
                ],
                "xyz": [
                    0.0,
                    0.0,
                    0.0
                ],
                "label": "Ta",
                "properties": {}
            },
            {
                "species": [
                    {
                        "element": "Ta",
                        "occu": 1
                    }
                ],
                "abc": [
                    0.61730593,
                    0.25,
                    0.88269407
                ],
                "xyz": [
                    1.1601619284141567,
                    -1.6377444783971318,
                    21.6852453475
                ],
                "label": "Ta",
                "properties": {}
            },
            {
                "species": [
                    {
                        "element": "Ta",
                        "occu": 1
                    }
                ],
                "abc": [
                    0.25,
                    0.88269407,
                    0.61730593
                ],
                "xyz": [
                    -1.9984092615858433,
                    -0.1858574816028682,
                    21.6852453475
                ],
                "label": "Ta",
                "properties": {}
            },
            {
                "species": [
                    {
                        "element": "Ta",
                        "occu": 1
                    }
                ],
                "abc": [
                    0.88269407,
                    0.61730593,
                    0.25
                ],
                "xyz": [
                    0.8382473331716866,
                    1.8236019600000002,
                    21.6852453475
                ],
                "label": "Ta",
                "properties": {}
            },
            {
                "species": [
                    {
                        "element": "Ta",
                        "occu": 1
                    }
                ],
                "abc": [
                    0.11730593,
                    0.38269407,
                    0.75
                ],
                "xyz": [
                    -0.8382473331716866,
                    -1.8236019600000002,
                    15.489460962499999
                ],
                "label": "Ta",
                "properties": {}
            },
            {
                "species": [
                    {
                        "element": "Ta",
                        "occu": 1
                    }
                ],
                "abc": [
                    0.38269407,
                    0.75,
                    0.11730593
                ],
                "xyz": [
                    -1.1601619284141567,
                    1.6377444783971316,
                    15.489460962499999
                ],
                "label": "Ta",
                "properties": {}
            },
            {
                "species": [
                    {
                        "element": "Ta",
                        "occu": 1
                    }
                ],
                "abc": [
                    0.75,
                    0.11730593,
                    0.38269407
                ],
                "xyz": [
                    1.9984092615858433,
                    0.1858574816028684,
                    15.489460962499999
                ],
                "label": "Ta",
                "properties": {}
            },
            {
                "species": [
                    {
                        "element": "O",
                        "occu": 1
                    }
                ],
                "abc": [
                    0.56569323,
                    0.26124567,
                    0.7675823
                ],
                "xyz": [
                    0.9616192918817965,
                    -1.291521774642372,
                    19.758619105022923
                ],
                "label": "O",
                "properties": {}
            },
            {
                "species": [
                    {
                        "element": "O",
                        "occu": 1
                    }
                ],
                "abc": [
                    0.26124567,
                    0.7675823,
                    0.56569323
                ],
                "xyz": [
                    -1.59930029195969,
                    -0.18702586337864058,
                    19.758619105022923
                ],
                "label": "O",
                "properties": {}
            },
            {
                "species": [
                    {
                        "element": "O",
                        "occu": 1
                    }
                ],
                "abc": [
                    0.7675823,
                    0.56569323,
                    0.26124567
                ],
                "xyz": [
                    0.6376810000778934,
                    1.4785476380210127,
                    19.758619105022923
                ],
                "label": "O",
                "properties": {}
            },
            {
                "species": [
                    {
                        "element": "O",
                        "occu": 1
                    }
                ],
                "abc": [
                    0.06569323,
                    0.2675823,
                    0.76124567
                ],
                "xyz": [
                    -0.6376810000778932,
                    -2.1686562819789876,
                    13.562834720022922
                ],
                "label": "O",
                "properties": {}
            },
            {
                "species": [
                    {
                        "element": "O",
                        "occu": 1
                    }
                ],
                "abc": [
                    0.2675823,
                    0.76124567,
                    0.06569323
                ],
                "xyz": [
                    -1.5592708980403105,
                    1.6365760966213596,
                    13.562834720022922
                ],
                "label": "O",
                "properties": {}
            },
            {
                "species": [
                    {
                        "element": "O",
                        "occu": 1
                    }
                ],
                "abc": [
                    0.76124567,
                    0.06569323,
                    0.2675823
                ],
                "xyz": [
                    2.1969518981182037,
                    0.532080185357628,
                    13.562834720022922
                ],
                "label": "O",
                "properties": {}
            },
            {
                "species": [
                    {
                        "element": "O",
                        "occu": 1
                    }
                ],
                "abc": [
                    0.43430677,
                    0.73875433,
                    0.2324177
                ],
                "xyz": [
                    -0.9616192918817963,
                    1.291521774642372,
                    17.416087204977078
                ],
                "label": "O",
                "properties": {}
            },
            {
                "species": [
                    {
                        "element": "O",
                        "occu": 1
                    }
                ],
                "abc": [
                    0.73875433,
                    0.2324177,
                    0.43430677
                ],
                "xyz": [
                    1.5993002919596895,
                    0.18702586337864036,
                    17.416087204977075
                ],
                "label": "O",
                "properties": {}
            },
            {
                "species": [
                    {
                        "element": "O",
                        "occu": 1
                    }
                ],
                "abc": [
                    0.2324177,
                    0.43430677,
                    0.73875433
                ],
                "xyz": [
                    -0.6376810000778932,
                    -1.4785476380210123,
                    17.416087204977075
                ],
                "label": "O",
                "properties": {}
            },
            {
                "species": [
                    {
                        "element": "O",
                        "occu": 1
                    }
                ],
                "abc": [
                    0.93430677,
                    0.7324177,
                    0.23875433
                ],
                "xyz": [
                    0.6376810000778934,
                    2.1686562819789876,
                    23.611871589977074
                ],
                "label": "O",
                "properties": {}
            },
            {
                "species": [
                    {
                        "element": "O",
                        "occu": 1
                    }
                ],
                "abc": [
                    0.7324177,
                    0.23875433,
                    0.93430677
                ],
                "xyz": [
                    1.5592708980403103,
                    -1.6365760966213594,
                    23.61187158997707
                ],
                "label": "O",
                "properties": {}
            },
            {
                "species": [
                    {
                        "element": "O",
                        "occu": 1
                    }
                ],
                "abc": [
                    0.23875433,
                    0.93430677,
                    0.7324177
                ],
                "xyz": [
                    -2.1969518981182037,
                    -0.532080185357628,
                    23.61187158997707
                ],
                "label": "O",
                "properties": {}
            },
            {
                "species": [
                    {
                        "element": "O",
                        "occu": 1
                    }
                ],
                "abc": [
                    0.90596122,
                    0.90596122,
                    0.90596122
                ],
                "xyz": [
                    0.0,
                    0.0,
                    33.6788422817493
                ],
                "label": "O",
                "properties": {}
            },
            {
                "species": [
                    {
                        "element": "O",
                        "occu": 1
                    }
                ],
                "abc": [
                    0.40596122,
                    0.40596122,
                    0.40596122
                ],
                "xyz": [
                    0.0,
                    0.0,
                    15.091489126749298
                ],
                "label": "O",
                "properties": {}
            },
            {
                "species": [
                    {
                        "element": "O",
                        "occu": 1
                    }
                ],
                "abc": [
                    0.09403878,
                    0.09403878,
                    0.09403878
                ],
                "xyz": [
                    0.0,
                    0.0,
                    3.4958640282507014
                ],
                "label": "O",
                "properties": {}
            },
            {
                "species": [
                    {
                        "element": "O",
                        "occu": 1
                    }
                ],
                "abc": [
                    0.59403878,
                    0.59403878,
                    0.59403878
                ],
                "xyz": [
                    0.0,
                    0.0,
                    22.0832171832507
                ],
                "label": "O",
                "properties": {}
            },
            {
                "species": [
                    {
                        "element": "O",
                        "occu": 1
                    }
                ],
                "abc": [
                    0.49980711,
                    0.00019289,
                    0.25
                ],
                "xyz": [
                    1.5780670814063216,
                    0.0,
                    9.2936765775
                ],
                "label": "O",
                "properties": {}
            },
            {
                "species": [
                    {
                        "element": "O",
                        "occu": 1
                    }
                ],
                "abc": [
                    0.00019289,
                    0.25,
                    0.49980711
                ],
                "xyz": [
                    -0.7890335407031609,
                    -1.3666462062538067,
                    9.2936765775
                ],
                "label": "O",
                "properties": {}
            },
            {
                "species": [
                    {
                        "element": "O",
                        "occu": 1
                    }
                ],
                "abc": [
                    0.25,
                    0.49980711,
                    0.00019289
                ],
                "xyz": [
                    -0.7890335407031608,
                    1.3666462062538067,
                    9.293676577500001
                ],
                "label": "O",
                "properties": {}
            },
            {
                "species": [
                    {
                        "element": "O",
                        "occu": 1
                    }
                ],
                "abc": [
                    0.99980711,
                    0.75,
                    0.50019289
                ],
                "xyz": [
                    0.7890335407031608,
                    1.3666462062538072,
                    27.8810297325
                ],
                "label": "O",
                "properties": {}
            },
            {
                "species": [
                    {
                        "element": "O",
                        "occu": 1
                    }
                ],
                "abc": [
                    0.75,
                    0.50019289,
                    0.99980711
                ],
                "xyz": [
                    0.7890335407031608,
                    -1.3666462062538067,
                    27.881029732499996
                ],
                "label": "O",
                "properties": {}
            },
            {
                "species": [
                    {
                        "element": "O",
                        "occu": 1
                    }
                ],
                "abc": [
                    0.50019289,
                    0.99980711,
                    0.75
                ],
                "xyz": [
                    -1.5780670814063216,
                    0.0,
                    27.881029732499996
                ],
                "label": "O",
                "properties": {}
            }
        ]
    },
    "spacegroup": {
        "source": "spglib",
        "symbol": "R-3c",
        "number": 167,
        "point_group": "-3m",
        "crystal_system": "trigonal",
        "hall": "-R 3 2\"c"
    },
    "dielectric": {
        "epsilon_ionic": [
            [
                21.39803742,
                -0.0,
                -0.0
            ],
            [
                -0.0,
                21.39804927,
                1.771e-05
            ],
            [
                -0.0,
                1.771e-05,
                25.35258288
            ]
        ],
        "epsilon_ionic_avg": 22.716223190000004,
        "epsilon_ionic_eig": [
            25.35258288007931,
            21.39804926992069,
            21.39803742
        ],
        "epsilon_electronic": [
            [
                4.92732721,
                0.0,
                -0.0
            ],
            [
                -0.0,
                4.9273282,
                -0.0
            ],
            [
                0.0,
                0.0,
                5.25193947
            ]
        ],
        "epsilon_electronic_avg": 5.035531626666667,
        "epsilon_electronic_eig": [
            4.92732721,
            4.9273282,
            5.25193947
        ]
    },
    "phonon": {
        "lowest_freq": -0.05261746347762955,
        "frequency": [
            -0.05261746347762955,
            -0.002352137669530097,
            -0.0023521374357426236,
            1.9214932571522332,
            1.9214934415818024,
            2.956318832963163,
            2.95631897350288,
            3.207088277665145,
            3.207088510094161,
            3.275819865130366,
            3.46754648396453,
            3.604583172101693,
            3.7756629240905855,
            4.060157135961852,
            4.060157322565563,
            4.1644216607962825,
            4.2711492679042635,
            4.271149310820136,
            4.425556642599056,
            4.448242206816429,
            4.925655861649498,
            4.925655988174848,
            5.145844634804513,
            5.145844682299171,
            5.487953755653686,
            5.623308964705172,
            5.623309051629128,
            5.685536779702775,
            5.6855371235930825,
            5.883019013589914,
            5.8830191382198675,
            6.352455044414271,
            6.3524552944909445,
            6.375612582693756,
            6.455882840794603,
            7.0195047512055995,
            7.180588593438743,
            7.180588661511194,
            7.233455297352103,
            7.348767707160397,
            7.546496637113297,
            7.546496685692156,
            7.891264716028967,
            7.936170503601684,
            7.936170796161075,
            8.046477837157761,
            8.046478156080074,
            8.14951664174364,
            9.745925414550879,
            9.745925565013838,
            9.948900481823474,
            9.948900924003217,
            10.019406839544171,
            10.123958453410994,
            10.123959141422857,
            10.126954229511211,
            10.190937173865484,
            10.440000437279219,
            10.440000612854018,
            10.57123237366008,
            11.02070141756024,
            12.329900638933713,
            12.344967425501506,
            12.344967999630494,
            12.48127780596356,
            12.481277845126236,
            12.548467931758847,
            12.633522045309622,
            12.633522519271127,
            12.702506653475144,
            12.702506663095297,
            13.274918934638862,
            13.368856673789042,
            14.038407054623256,
            14.61814130283441,
            14.618141470024016,
            14.687059915302598,
            14.687060090027925,
            15.113900752494622,
            15.196170626140118,
            15.895250736629105,
            16.43457637252842,
            16.434576446883884,
            16.95758356157227,
            16.957583705696653,
            17.169147854630765,
            17.186981115240524,
            18.33228325405666,
            18.332283720665448,
            18.544828280191236,
            18.544828873240988,
            19.41254591857717,
            19.412546988710407,
            19.64242290198922,
            19.6424239595986,
            24.434607773410665,
            24.457244047021145,
            24.457244047021145,
            24.473848050530126,
            24.473848050530126,
            25.735083489913922,
            26.040110327977477
        ]
    },
    "born_effective_charge": {
        "avg_abs_trace": 3.653921078431372,
        "tensors": [
            [
                [
                    1.19373,
                    0.00532,
                    -1e-05
                ],
                [
                    -0.00533,
                    1.19375,
                    0.0
                ],
                [
                    -0.0,
                    -0.0,
                    1.281
                ]
            ],
            [
                [
                    1.19376,
                    -0.00534,
                    -1e-05
                ],
                [
                    0.00533,
                    1.19375,
                    0.0
                ],
                [
                    -0.0,
                    -0.0,
                    1.281
                ]
            ],
            [
                [
                    1.19376,
                    0.00534,
                    1e-05
                ],
                [
                    -0.00532,
                    1.19374,
                    -0.0
                ],
                [
                    -0.0,
                    -0.0,
                    1.28101
                ]
            ],
            [
                [
                    1.19373,
                    -0.00532,
                    1e-05
                ],
                [
                    0.00532,
                    1.19374,
                    -0.0
                ],
                [
                    -0.0,
                    -0.0,
                    1.28101
                ]
            ],
            [
                [
                    6.2818,
                    0.07393,
                    -0.0
                ],
                [
                    -0.07392,
                    6.28181,
                    0.0
                ],
                [
                    -0.0,
                    -0.0,
                    10.22039
                ]
            ],
            [
                [
                    6.2818,
                    -0.07393,
                    0.0
                ],
                [
                    0.07392,
                    6.28181,
                    0.0
                ],
                [
                    -0.0,
                    -0.0,
                    10.22039
                ]
            ],
            [
                [
                    7.40946,
                    -0.63038,
                    1.56123
                ],
                [
                    -0.6304,
                    6.68147,
                    -0.90136
                ],
                [
                    0.6167,
                    -0.35604,
                    6.92712
                ]
            ],
            [
                [
                    7.40946,
                    0.63038,
                    -1.56123
                ],
                [
                    0.63038,
                    6.68151,
                    -0.90139
                ],
                [
                    -0.61669,
                    -0.35606,
                    6.92712
                ]
            ],
            [
                [
                    6.31736,
                    -0.0,
                    -0.0
                ],
                [
                    -2e-05,
                    7.77334,
                    1.80277
                ],
                [
                    -1e-05,
                    0.7121,
                    6.92712
                ]
            ],
            [
                [
                    6.31774,
                    -0.0,
                    -0.0
                ],
                [
                    2e-05,
                    7.77334,
                    1.80277
                ],
                [
                    1e-05,
                    0.7121,
                    6.92712
                ]
            ],
            [
                [
                    7.40932,
                    -0.63039,
                    1.56123
                ],
                [
                    -0.63038,
                    6.68151,
                    -0.90139
                ],
                [
                    0.61669,
                    -0.35606,
                    6.92712
                ]
            ],
            [
                [
                    7.40932,
                    0.63039,
                    -1.56123
                ],
                [
                    0.6304,
                    6.68147,
                    -0.90136
                ],
                [
                    -0.6167,
                    -0.35604,
                    6.92712
                ]
            ],
            [
                [
                    -1.85316,
                    0.70884,
                    -1.11181
                ],
                [
                    0.69269,
                    -2.18173,
                    1.42345
                ],
                [
                    -0.99217,
                    1.45834,
                    -4.62359
                ]
            ],
            [
                [
                    -2.70652,
                    -0.20007,
                    1.78864
                ],
                [
                    -0.21622,
                    -1.32841,
                    0.25121
                ],
                [
                    1.75904,
                    0.13008,
                    -4.62359
                ]
            ],
            [
                [
                    -1.49272,
                    -0.48466,
                    -0.67672
                ],
                [
                    -0.50076,
                    -2.54222,
                    -1.67467
                ],
                [
                    -0.76687,
                    -1.58842,
                    -4.62359
                ]
            ],
            [
                [
                    -1.49267,
                    0.4846,
                    0.6769
                ],
                [
                    0.50076,
                    -2.54222,
                    -1.67467
                ],
                [
                    0.76687,
                    -1.58842,
                    -4.62359
                ]
            ],
            [
                [
                    -2.70652,
                    0.20004,
                    -1.78868
                ],
                [
                    0.21622,
                    -1.32841,
                    0.25121
                ],
                [
                    -1.75904,
                    0.13008,
                    -4.62359
                ]
            ],
            [
                [
                    -1.85315,
                    -0.70888,
                    1.11189
                ],
                [
                    -0.69269,
                    -2.18173,
                    1.42345
                ],
                [
                    0.99217,
                    1.45834,
                    -4.62359
                ]
            ],
            [
                [
                    -1.85315,
                    0.70888,
                    -1.11189
                ],
                [
                    0.69279,
                    -2.18179,
                    1.42344
                ],
                [
                    -0.99215,
                    1.45841,
                    -4.62359
                ]
            ],
            [
                [
                    -2.70652,
                    -0.20004,
                    1.78868
                ],
                [
                    -0.21611,
                    -1.3284,
                    0.25113
                ],
                [
                    1.7591,
                    0.13002,
                    -4.62359
                ]
            ],
            [
                [
                    -1.49267,
                    -0.4846,
                    -0.6769
                ],
                [
                    -0.50073,
                    -2.5422,
                    -1.67458
                ],
                [
                    -0.76694,
                    -1.58844,
                    -4.62359
                ]
            ],
            [
                [
                    -1.49272,
                    0.48466,
                    0.67672
                ],
                [
                    0.50073,
                    -2.5422,
                    -1.67458
                ],
                [
                    0.76694,
                    -1.58844,
                    -4.62359
                ]
            ],
            [
                [
                    -2.70652,
                    0.20007,
                    -1.78864
                ],
                [
                    0.21611,
                    -1.3284,
                    0.25113
                ],
                [
                    -1.7591,
                    0.13002,
                    -4.62359
                ]
            ],
            [
                [
                    -1.85316,
                    -0.70884,
                    1.11181
                ],
                [
                    -0.69279,
                    -2.18179,
                    1.42344
                ],
                [
                    0.99215,
                    1.45841,
                    -4.62359
                ]
            ],
            [
                [
                    -3.4168,
                    0.10217,
                    -2e-05
                ],
                [
                    -0.10198,
                    -3.41695,
                    2e-05
                ],
                [
                    -0.0,
                    -0.0,
                    -1.23725
                ]
            ],
            [
                [
                    -3.41707,
                    -0.10181,
                    -1e-05
                ],
                [
                    0.10198,
                    -3.41695,
                    2e-05
                ],
                [
                    -0.0,
                    -0.0,
                    -1.23725
                ]
            ],
            [
                [
                    -3.41707,
                    0.10181,
                    1e-05
                ],
                [
                    -0.10199,
                    -3.41692,
                    -3e-05
                ],
                [
                    -0.0,
                    -0.0,
                    -1.23725
                ]
            ],
            [
                [
                    -3.4168,
                    -0.10217,
                    2e-05
                ],
                [
                    0.10199,
                    -3.41692,
                    -3e-05
                ],
                [
                    -0.0,
                    -0.0,
                    -1.23725
                ]
            ],
            [
                [
                    -2.25895,
                    -0.0,
                    0.0
                ],
                [
                    3e-05,
                    -4.98569,
                    0.08864
                ],
                [
                    -3e-05,
                    -0.15408,
                    -1.1159
                ]
            ],
            [
                [
                    -4.30415,
                    1.18031,
                    0.07678
                ],
                [
                    1.1807,
                    -2.94066,
                    -0.04435
                ],
                [
                    -0.13342,
                    0.07707,
                    -1.1159
                ]
            ],
            [
                [
                    -4.30415,
                    -1.18031,
                    -0.07678
                ],
                [
                    -1.18069,
                    -2.94066,
                    -0.0443
                ],
                [
                    0.13345,
                    0.07701,
                    -1.1159
                ]
            ],
            [
                [
                    -4.30387,
                    1.18108,
                    0.07675
                ],
                [
                    1.18069,
                    -2.94066,
                    -0.0443
                ],
                [
                    -0.13345,
                    0.07701,
                    -1.1159
                ]
            ],
            [
                [
                    -4.30387,
                    -1.18108,
                    -0.07675
                ],
                [
                    -1.1807,
                    -2.94066,
                    -0.04435
                ],
                [
                    0.13342,
                    0.07707,
                    -1.1159
                ]
            ],
            [
                [
                    -2.259,
                    -0.0,
                    0.0
                ],
                [
                    -3e-05,
                    -4.98569,
                    0.08864
                ],
                [
                    3e-05,
                    -0.15408,
                    -1.1159
                ]
            ]
        ]
    },
    "band_gap": 3.7677000000000005,
    "is_direct": false,
    "formula": "K2Ta4O11"
}