{
    "mp_id": "mp-17380",
    "nelements": 4,
    "nsites": 24,
    "elements": [
        "Ba",
        "Ca",
        "O",
        "Pd"
    ],
    "structure": {
        "@module": "pymatgen.core.structure",
        "@class": "Structure",
        "charge": null,
        "lattice": {
            "matrix": [
                [
                    0.0,
                    5.69481289,
                    7.4245102
                ],
                [
                    4.32831333,
                    0.0,
                    7.4245102
                ],
                [
                    4.32831333,
                    5.69481289,
                    0.0
                ]
            ],
            "a": 9.35704256493547,
            "b": 8.594047241699322,
            "c": 7.1529847011416035,
            "alpha": 72.25651144924416,
            "beta": 61.017413958901116,
            "gamma": 46.72607459185473,
            "volume": 366.012531876817
        },
        "sites": [
            {
                "species": [
                    {
                        "element": "Ba",
                        "occu": 1
                    }
                ],
                "abc": [
                    0.75,
                    0.75,
                    0.75
                ],
                "xyz": [
                    6.492469995,
                    8.542219334999999,
                    11.1367653
                ],
                "label": "Ba",
                "properties": {}
            },
            {
                "species": [
                    {
                        "element": "Ba",
                        "occu": 1
                    }
                ],
                "abc": [
                    0.25,
                    0.25,
                    0.25
                ],
                "xyz": [
                    2.164156665,
                    2.847406445,
                    3.7122551
                ],
                "label": "Ba",
                "properties": {}
            },
            {
                "species": [
                    {
                        "element": "Ba",
                        "occu": 1
                    }
                ],
                "abc": [
                    0.2304978,
                    0.7695022,
                    0.2304978
                ],
                "xyz": [
                    4.32831333,
                    2.625283685113284,
                    7.4245102
                ],
                "label": "Ba",
                "properties": {}
            },
            {
                "species": [
                    {
                        "element": "Ba",
                        "occu": 1
                    }
                ],
                "abc": [
                    0.7695022,
                    0.2304978,
                    0.7695022
                ],
                "xyz": [
                    4.32831333,
                    8.764342094886716,
                    7.4245102
                ],
                "label": "Ba",
                "properties": {}
            },
            {
                "species": [
                    {
                        "element": "Ca",
                        "occu": 1
                    }
                ],
                "abc": [
                    0.67085788,
                    0.67085788,
                    0.32914212
                ],
                "xyz": [
                    4.32831333,
                    5.69481289,
                    9.961582345620753
                ],
                "label": "Ca",
                "properties": {}
            },
            {
                "species": [
                    {
                        "element": "Ca",
                        "occu": 1
                    }
                ],
                "abc": [
                    0.32914212,
                    0.32914212,
                    0.67085788
                ],
                "xyz": [
                    4.32831333,
                    5.69481289,
                    4.887438054379248
                ],
                "label": "Ca",
                "properties": {}
            },
            {
                "species": [
                    {
                        "element": "Pd",
                        "occu": 1
                    }
                ],
                "abc": [
                    0.6912935,
                    0.00702457,
                    0.3087065
                ],
                "xyz": [
                    1.366582998976163,
                    5.69481289,
                    5.184669633559315
                ],
                "label": "Pd",
                "properties": {}
            },
            {
                "species": [
                    {
                        "element": "Pd",
                        "occu": 1
                    }
                ],
                "abc": [
                    0.99297543,
                    0.3087065,
                    0.00702457
                ],
                "xyz": [
                    1.366582998976163,
                    5.69481289,
                    9.664350766440686
                ],
                "label": "Pd",
                "properties": {}
            },
            {
                "species": [
                    {
                        "element": "Pd",
                        "occu": 1
                    }
                ],
                "abc": [
                    0.00702457,
                    0.6912935,
                    0.99297543
                ],
                "xyz": [
                    7.290043661023837,
                    5.69481289,
                    5.184669633559315
                ],
                "label": "Pd",
                "properties": {}
            },
            {
                "species": [
                    {
                        "element": "Pd",
                        "occu": 1
                    }
                ],
                "abc": [
                    0.3087065,
                    0.99297543,
                    0.6912935
                ],
                "xyz": [
                    7.290043661023837,
                    5.69481289,
                    9.664350766440686
                ],
                "label": "Pd",
                "properties": {}
            },
            {
                "species": [
                    {
                        "element": "Pd",
                        "occu": 1
                    }
                ],
                "abc": [
                    0.32477736,
                    0.67522264,
                    0.67522264
                ],
                "xyz": [
                    5.8451503068595825,
                    5.69481289,
                    7.4245102
                ],
                "label": "Pd",
                "properties": {}
            },
            {
                "species": [
                    {
                        "element": "Pd",
                        "occu": 1
                    }
                ],
                "abc": [
                    0.67522264,
                    0.32477736,
                    0.32477736
                ],
                "xyz": [
                    2.811476353140418,
                    5.69481289,
                    7.4245102
                ],
                "label": "Pd",
                "properties": {}
            },
            {
                "species": [
                    {
                        "element": "O",
                        "occu": 1
                    }
                ],
                "abc": [
                    0.32726398,
                    0.47077946,
                    0.9063505
                ],
                "xyz": [
                    5.960649963010367,
                    7.025203641994646,
                    5.925081660323088
                ],
                "label": "O",
                "properties": {}
            },
            {
                "species": [
                    {
                        "element": "O",
                        "occu": 1
                    }
                ],
                "abc": [
                    0.29560606,
                    0.9063505,
                    0.47077946
                ],
                "xyz": [
                    5.960649963010367,
                    4.364422138005352,
                    8.923938739676913
                ],
                "label": "O",
                "properties": {}
            },
            {
                "species": [
                    {
                        "element": "O",
                        "occu": 1
                    }
                ],
                "abc": [
                    0.9063505,
                    0.29560606,
                    0.32726398
                ],
                "xyz": [
                    2.6959766969896335,
                    7.025203641994646,
                    8.923938739676913
                ],
                "label": "O",
                "properties": {}
            },
            {
                "species": [
                    {
                        "element": "O",
                        "occu": 1
                    }
                ],
                "abc": [
                    0.47077946,
                    0.32726398,
                    0.29560606
                ],
                "xyz": [
                    2.6959766969896335,
                    4.364422138005352,
                    5.925081660323088
                ],
                "label": "O",
                "properties": {}
            },
            {
                "species": [
                    {
                        "element": "O",
                        "occu": 1
                    }
                ],
                "abc": [
                    0.67273602,
                    0.52922054,
                    0.0936495
                ],
                "xyz": [
                    2.695976696989633,
                    4.364422138005352,
                    8.923938739676913
                ],
                "label": "O",
                "properties": {}
            },
            {
                "species": [
                    {
                        "element": "O",
                        "occu": 1
                    }
                ],
                "abc": [
                    0.70439394,
                    0.0936495,
                    0.52922054
                ],
                "xyz": [
                    2.695976696989633,
                    7.025203641994646,
                    5.925081660323088
                ],
                "label": "O",
                "properties": {}
            },
            {
                "species": [
                    {
                        "element": "O",
                        "occu": 1
                    }
                ],
                "abc": [
                    0.68891231,
                    0.92349115,
                    0.07650885
                ],
                "xyz": [
                    4.32831333,
                    4.358930288246752,
                    11.971305935285292
                ],
                "label": "O",
                "properties": {}
            },
            {
                "species": [
                    {
                        "element": "O",
                        "occu": 1
                    }
                ],
                "abc": [
                    0.52922054,
                    0.67273602,
                    0.70439394
                ],
                "xyz": [
                    5.960649963010367,
                    7.025203641994646,
                    8.923938739676913
                ],
                "label": "O",
                "properties": {}
            },
            {
                "species": [
                    {
                        "element": "O",
                        "occu": 1
                    }
                ],
                "abc": [
                    0.92349115,
                    0.68891231,
                    0.31108769
                ],
                "xyz": [
                    4.32831333,
                    7.030695491753248,
                    11.971305935285292
                ],
                "label": "O",
                "properties": {}
            },
            {
                "species": [
                    {
                        "element": "O",
                        "occu": 1
                    }
                ],
                "abc": [
                    0.07650885,
                    0.31108769,
                    0.68891231
                ],
                "xyz": [
                    4.32831333,
                    4.358930288246752,
                    2.8777144647147077
                ],
                "label": "O",
                "properties": {}
            },
            {
                "species": [
                    {
                        "element": "O",
                        "occu": 1
                    }
                ],
                "abc": [
                    0.31108769,
                    0.07650885,
                    0.92349115
                ],
                "xyz": [
                    4.32831333,
                    7.030695491753248,
                    2.8777144647147077
                ],
                "label": "O",
                "properties": {}
            },
            {
                "species": [
                    {
                        "element": "O",
                        "occu": 1
                    }
                ],
                "abc": [
                    0.0936495,
                    0.70439394,
                    0.67273602
                ],
                "xyz": [
                    5.960649963010367,
                    4.364422138005352,
                    5.925081660323088
                ],
                "label": "O",
                "properties": {}
            }
        ]
    },
    "spacegroup": {
        "source": "spglib",
        "symbol": "Fmmm",
        "number": 69,
        "point_group": "mmm",
        "crystal_system": "orthorhombic",
        "hall": "-F 2 2"
    },
    "dielectric": {
        "epsilon_ionic": [
            [
                48.66249708,
                -1e-08,
                0.0
            ],
            [
                -1e-08,
                8.15507067,
                1e-08
            ],
            [
                0.0,
                1e-08,
                13.36499118
            ]
        ],
        "epsilon_ionic_avg": 23.39418631,
        "epsilon_ionic_eig": [
            48.66249708,
            8.15507067,
            13.36499118
        ],
        "epsilon_electronic": [
            [
                5.69445334,
                0.0,
                0.0
            ],
            [
                0.0,
                4.79499872,
                0.0
            ],
            [
                0.0,
                0.0,
                5.5727279
            ]
        ],
        "epsilon_electronic_avg": 5.354059986666667,
        "epsilon_electronic_eig": [
            5.69445334,
            4.79499872,
            5.5727279
        ]
    },
    "phonon": {
        "lowest_freq": -0.05944850470241169,
        "frequency": [
            -0.05944850470241169,
            -0.05001585228822184,
            -0.02828980546364098,
            0.7259404020291124,
            1.411020766296908,
            1.8163401613041683,
            1.859013011816774,
            1.9305132373970433,
            2.3673383371371632,
            2.5503112841639903,
            2.591178480491595,
            2.7454111856846173,
            2.801512027555706,
            2.833861654670195,
            2.9280405532528633,
            3.252054715493002,
            3.577144784443978,
            3.7613164934324983,
            3.829292251859072,
            3.9150891830001395,
            4.202210538309986,
            4.434495998749258,
            4.667989542749208,
            5.2111746246880575,
            5.517418199281629,
            5.644434029177085,
            5.877498681594872,
            5.893704387660504,
            6.16955322691395,
            6.24563756870925,
            6.385731884572371,
            6.712613169788999,
            7.207389568157161,
            7.429485676630325,
            7.606235774410928,
            7.811351875038557,
            7.937792271789485,
            7.952690153110581,
            8.086696532230269,
            8.419471406691278,
            8.608855354728547,
            8.80965975017718,
            9.908530202272676,
            10.196621374141055,
            10.414693771503426,
            10.672425837564038,
            11.348973303581417,
            11.475840524586527,
            12.793722574722997,
            12.87698691261147,
            13.395780236037293,
            13.41348345969172,
            13.820945563408431,
            13.911445439288537,
            13.975058376887654,
            14.10386086320406,
            14.283984987819522,
            14.289868027068962,
            14.545652107582637,
            14.887889979362535,
            15.032973538057503,
            15.194250177569792,
            15.263528249079133,
            15.324745770764729,
            15.339692939516153,
            15.535641596108775,
            15.671604506111748,
            15.711652064115448,
            15.805367904737599,
            16.06908070675397,
            16.09703443208365,
            17.320326344326578
        ]
    },
    "born_effective_charge": {
        "avg_abs_trace": 1.946379722222222,
        "tensors": [
            [
                [
                    2.45948,
                    0.0,
                    -0.0
                ],
                [
                    -0.0,
                    3.74739,
                    0.0
                ],
                [
                    -0.0,
                    0.0,
                    3.3076
                ]
            ],
            [
                [
                    2.45948,
                    0.0,
                    0.0
                ],
                [
                    -0.0,
                    3.74739,
                    0.0
                ],
                [
                    -0.0,
                    0.0,
                    3.3076
                ]
            ],
            [
                [
                    3.19027,
                    -5e-05,
                    -0.0
                ],
                [
                    -0.0,
                    3.77652,
                    0.0
                ],
                [
                    -0.0,
                    0.00021,
                    2.69649
                ]
            ],
            [
                [
                    3.19027,
                    5e-05,
                    -0.0
                ],
                [
                    -0.0,
                    3.77659,
                    0.0
                ],
                [
                    -0.0,
                    -0.00021,
                    2.69649
                ]
            ],
            [
                [
                    2.95623,
                    0.0,
                    3e-05
                ],
                [
                    -0.0,
                    1.13236,
                    -0.00034
                ],
                [
                    -0.0,
                    0.0,
                    3.01864
                ]
            ],
            [
                [
                    2.95623,
                    0.0,
                    -3e-05
                ],
                [
                    -0.0,
                    1.13236,
                    0.00034
                ],
                [
                    -0.0,
                    0.0,
                    3.01925
                ]
            ],
            [
                [
                    1.75546,
                    0.0,
                    1.19305
                ],
                [
                    -4e-05,
                    1.0757,
                    -9e-05
                ],
                [
                    1.23636,
                    0.0,
                    0.09026
                ]
            ],
            [
                [
                    1.75546,
                    0.0,
                    -1.19305
                ],
                [
                    -4e-05,
                    1.0757,
                    9e-05
                ],
                [
                    -1.23628,
                    0.0,
                    0.09047
                ]
            ],
            [
                [
                    1.75556,
                    0.0,
                    -1.1933
                ],
                [
                    4e-05,
                    1.0757,
                    -9e-05
                ],
                [
                    -1.23636,
                    0.0,
                    0.09026
                ]
            ],
            [
                [
                    1.75556,
                    0.0,
                    1.1933
                ],
                [
                    4e-05,
                    1.0757,
                    9e-05
                ],
                [
                    1.23628,
                    0.0,
                    0.09047
                ]
            ],
            [
                [
                    -0.32285,
                    0.0,
                    -0.0
                ],
                [
                    -9e-05,
                    1.03562,
                    0.0
                ],
                [
                    -0.00013,
                    0.0,
                    2.19353
                ]
            ],
            [
                [
                    -0.32273,
                    0.0,
                    -0.0
                ],
                [
                    9e-05,
                    1.03562,
                    0.0
                ],
                [
                    0.00013,
                    0.0,
                    2.19353
                ]
            ],
            [
                [
                    -1.76789,
                    0.59614,
                    0.36079
                ],
                [
                    0.32964,
                    -1.96239,
                    0.29025
                ],
                [
                    0.3461,
                    0.3046,
                    -2.09321
                ]
            ],
            [
                [
                    -1.76789,
                    -0.59614,
                    -0.36079
                ],
                [
                    -0.32968,
                    -1.96245,
                    0.2902
                ],
                [
                    -0.34615,
                    0.30438,
                    -2.09315
                ]
            ],
            [
                [
                    -1.76765,
                    -0.59631,
                    0.36088
                ],
                [
                    -0.32964,
                    -1.96239,
                    -0.29025
                ],
                [
                    0.34615,
                    -0.30438,
                    -2.09315
                ]
            ],
            [
                [
                    -1.76765,
                    0.59631,
                    -0.36088
                ],
                [
                    0.32968,
                    -1.96245,
                    -0.2902
                ],
                [
                    -0.3461,
                    -0.3046,
                    -2.09321
                ]
            ],
            [
                [
                    -1.76765,
                    0.59631,
                    0.36088
                ],
                [
                    0.32968,
                    -1.96245,
                    0.2902
                ],
                [
                    0.34615,
                    0.30438,
                    -2.09315
                ]
            ],
            [
                [
                    -1.76765,
                    -0.59631,
                    -0.36088
                ],
                [
                    -0.32964,
                    -1.96239,
                    0.29025
                ],
                [
                    -0.3461,
                    0.3046,
                    -2.09321
                ]
            ],
            [
                [
                    -2.36157,
                    -5e-05,
                    9e-05
                ],
                [
                    -0.0,
                    -1.99704,
                    -0.38188
                ],
                [
                    -0.0,
                    -0.62155,
                    -1.51215
                ]
            ],
            [
                [
                    -1.76789,
                    0.59614,
                    -0.36079
                ],
                [
                    0.32964,
                    -1.96239,
                    -0.29025
                ],
                [
                    -0.34615,
                    -0.30438,
                    -2.09315
                ]
            ],
            [
                [
                    -2.36157,
                    5e-05,
                    9e-05
                ],
                [
                    -0.0,
                    -1.99662,
                    0.38198
                ],
                [
                    -0.0,
                    0.62155,
                    -1.51215
                ]
            ],
            [
                [
                    -2.36157,
                    -5e-05,
                    -9e-05
                ],
                [
                    -0.0,
                    -1.99704,
                    0.38188
                ],
                [
                    -0.0,
                    0.62159,
                    -1.51241
                ]
            ],
            [
                [
                    -2.36157,
                    5e-05,
                    -9e-05
                ],
                [
                    -0.0,
                    -1.99662,
                    -0.38198
                ],
                [
                    -0.0,
                    -0.62159,
                    -1.51241
                ]
            ],
            [
                [
                    -1.76789,
                    -0.59614,
                    0.36079
                ],
                [
                    -0.32968,
                    -1.96245,
                    -0.2902
                ],
                [
                    0.3461,
                    -0.3046,
                    -2.09321
                ]
            ]
        ]
    },
    "band_gap": 2.0338000000000003,
    "is_direct": false,
    "formula": "Ba2Ca(PdO2)3"
}