{
    "mp_id": "mp-1201259",
    "nelements": 4,
    "nsites": 16,
    "elements": [
        "As",
        "Na",
        "O",
        "Ti"
    ],
    "structure": {
        "@module": "pymatgen.core.structure",
        "@class": "Structure",
        "charge": null,
        "lattice": {
            "matrix": [
                [
                    3.36680947,
                    -4.42027776,
                    5e-06
                ],
                [
                    3.36680947,
                    4.42027776,
                    5e-06
                ],
                [
                    -2.94075187,
                    0.0,
                    6.53995323
                ]
            ],
            "a": 5.556461237411569,
            "b": 5.556461237411569,
            "c": 7.170704973117771,
            "alpha": 104.38839369690658,
            "beta": 104.38839369690658,
            "gamma": 105.40885556781951,
            "volume": 194.65834583829488
        },
        "sites": [
            {
                "species": [
                    {
                        "element": "Na",
                        "occu": 1
                    }
                ],
                "abc": [
                    0.67601958,
                    0.32398042,
                    0.75
                ],
                "xyz": [
                    1.1612455674999995,
                    -1.5561108695970813,
                    4.904969922499999
                ],
                "label": "Na",
                "properties": {}
            },
            {
                "species": [
                    {
                        "element": "Na",
                        "occu": 1
                    }
                ],
                "abc": [
                    0.32398042,
                    0.67601958,
                    0.25
                ],
                "xyz": [
                    2.6316215025,
                    1.5561108695970813,
                    1.6349933075
                ],
                "label": "Na",
                "properties": {}
            },
            {
                "species": [
                    {
                        "element": "Ti",
                        "occu": 1
                    }
                ],
                "abc": [
                    0.0,
                    0.0,
                    0.0
                ],
                "xyz": [
                    0.0,
                    0.0,
                    0.0
                ],
                "label": "Ti",
                "properties": {}
            },
            {
                "species": [
                    {
                        "element": "Ti",
                        "occu": 1
                    }
                ],
                "abc": [
                    0.0,
                    0.0,
                    0.5
                ],
                "xyz": [
                    -1.470375935,
                    0.0,
                    3.269976615
                ],
                "label": "Ti",
                "properties": {}
            },
            {
                "species": [
                    {
                        "element": "As",
                        "occu": 1
                    }
                ],
                "abc": [
                    0.31766695,
                    0.68233305,
                    0.75
                ],
                "xyz": [
                    1.1612455675000004,
                    1.611925451655936,
                    4.904969922499999
                ],
                "label": "As",
                "properties": {}
            },
            {
                "species": [
                    {
                        "element": "As",
                        "occu": 1
                    }
                ],
                "abc": [
                    0.68233305,
                    0.31766695,
                    0.25
                ],
                "xyz": [
                    2.6316215025000007,
                    -1.611925451655936,
                    1.6349933075
                ],
                "label": "As",
                "properties": {}
            },
            {
                "species": [
                    {
                        "element": "O",
                        "occu": 1
                    }
                ],
                "abc": [
                    0.62350052,
                    0.75101192,
                    0.92107236
                ],
                "xyz": [
                    1.9190762345494932,
                    0.5636358055664643,
                    6.023777028407923
                ],
                "label": "O",
                "properties": {}
            },
            {
                "species": [
                    {
                        "element": "O",
                        "occu": 1
                    }
                ],
                "abc": [
                    0.24898808,
                    0.37649948,
                    0.57892764
                ],
                "xyz": [
                    0.40341490045050654,
                    0.5636358055664641,
                    3.7861628165920767
                ],
                "label": "O",
                "properties": {}
            },
            {
                "species": [
                    {
                        "element": "O",
                        "occu": 1
                    }
                ],
                "abc": [
                    0.37649948,
                    0.24898808,
                    0.07892764
                ],
                "xyz": [
                    1.8737908354505066,
                    -0.5636358055664641,
                    0.5161862015920771
                ],
                "label": "O",
                "properties": {}
            },
            {
                "species": [
                    {
                        "element": "O",
                        "occu": 1
                    }
                ],
                "abc": [
                    0.75101192,
                    0.62350052,
                    0.42107236
                ],
                "xyz": [
                    3.3894521695494935,
                    -0.5636358055664643,
                    2.753800413407923
                ],
                "label": "O",
                "properties": {}
            },
            {
                "species": [
                    {
                        "element": "O",
                        "occu": 1
                    }
                ],
                "abc": [
                    0.31878895,
                    0.89709143,
                    0.61482751
                ],
                "xyz": [
                    2.285582428011255,
                    2.556257590896845,
                    4.020949239319258
                ],
                "label": "O",
                "properties": {}
            },
            {
                "species": [
                    {
                        "element": "O",
                        "occu": 1
                    }
                ],
                "abc": [
                    0.10290857,
                    0.68121105,
                    0.88517249
                ],
                "xyz": [
                    0.03690870698874482,
                    2.5562575908968452,
                    5.788990605680743
                ],
                "label": "O",
                "properties": {}
            },
            {
                "species": [
                    {
                        "element": "O",
                        "occu": 1
                    }
                ],
                "abc": [
                    0.68121105,
                    0.10290857,
                    0.38517249
                ],
                "xyz": [
                    1.5072846419887451,
                    -2.5562575908968452,
                    2.5190139906807425
                ],
                "label": "O",
                "properties": {}
            },
            {
                "species": [
                    {
                        "element": "O",
                        "occu": 1
                    }
                ],
                "abc": [
                    0.89709143,
                    0.31878895,
                    0.11482751
                ],
                "xyz": [
                    3.7559583630112554,
                    -2.556257590896845,
                    0.7509726243192573
                ],
                "label": "O",
                "properties": {}
            },
            {
                "species": [
                    {
                        "element": "O",
                        "occu": 1
                    }
                ],
                "abc": [
                    0.93447893,
                    0.06552107,
                    0.75
                ],
                "xyz": [
                    1.1612455675,
                    -3.8410351029351935,
                    4.904969922499999
                ],
                "label": "O",
                "properties": {}
            },
            {
                "species": [
                    {
                        "element": "O",
                        "occu": 1
                    }
                ],
                "abc": [
                    0.06552107,
                    0.93447893,
                    0.25
                ],
                "xyz": [
                    2.6316215025000003,
                    3.8410351029351935,
                    1.6349933075
                ],
                "label": "O",
                "properties": {}
            }
        ]
    },
    "spacegroup": {
        "source": "spglib",
        "symbol": "C2/c",
        "number": 15,
        "point_group": "2/m",
        "crystal_system": "monoclinic",
        "hall": "-C 2yc"
    },
    "dielectric": {
        "epsilon_ionic": [
            [
                12.08897643,
                1e-08,
                -7.94009846
            ],
            [
                1e-08,
                8.45342381,
                -1e-08
            ],
            [
                -7.94009846,
                -1e-08,
                33.3248579
            ]
        ],
        "epsilon_ionic_avg": 17.955752713333336,
        "epsilon_ionic_eig": [
            35.965341996271135,
            9.448492333728877,
            8.453423809999999
        ],
        "epsilon_electronic": [
            [
                4.09004589,
                0.0,
                -0.44434058
            ],
            [
                0.0,
                4.04869081,
                0.0
            ],
            [
                -0.44433442,
                0.0,
                5.45647448
            ]
        ],
        "epsilon_electronic_avg": 4.53173706,
        "epsilon_electronic_eig": [
            3.9582647329948304,
            5.58825563700517,
            4.04869081
        ]
    },
    "phonon": {
        "lowest_freq": -0.06827789193453682,
        "frequency": [
            -0.06827789193453682,
            -0.05665814551445141,
            -0.04130097232203234,
            1.7347434797552448,
            2.9673810654262605,
            3.025973559548286,
            3.981529765375624,
            3.989650543340986,
            4.036454931648066,
            4.16519392456682,
            4.912237736927783,
            5.176326003212795,
            5.427399835793027,
            6.108200236752134,
            6.117920073861818,
            6.132034841905182,
            6.258378804813829,
            7.123886227956249,
            7.559879823692804,
            7.643705647707741,
            8.111277449137795,
            8.231461633336034,
            8.430536519531348,
            8.712629534396289,
            9.047242396578053,
            9.362481111328249,
            9.600359232571993,
            10.551599492234244,
            11.188330187965667,
            12.253892233685365,
            12.402846124343137,
            12.614718776668525,
            13.23980816006882,
            13.479729901234899,
            13.658499628534539,
            13.915331614318527,
            14.267738753033694,
            14.966185337704829,
            17.963297210403166,
            21.131183755351586,
            22.492567697041032,
            22.757523801263346,
            23.11811919401362,
            23.347316921980706,
            23.775791742629877,
            25.495090867565587,
            25.700903954986988,
            26.97552344167721
        ]
    },
    "born_effective_charge": {
        "avg_abs_trace": 2.8880745833333332,
        "tensors": [
            [
                [
                    1.21392,
                    -3e-05,
                    -0.02692
                ],
                [
                    0.0,
                    1.14581,
                    0.0
                ],
                [
                    -0.03242,
                    8e-05,
                    1.04592
                ]
            ],
            [
                [
                    1.21392,
                    3e-05,
                    -0.02692
                ],
                [
                    0.0,
                    1.14582,
                    0.0
                ],
                [
                    -0.03242,
                    -8e-05,
                    1.04592
                ]
            ],
            [
                [
                    5.51634,
                    -0.44459,
                    -2.06329
                ],
                [
                    -1.16124,
                    4.89822,
                    0.30357
                ],
                [
                    -0.7445,
                    -1.10455,
                    8.7857
                ]
            ],
            [
                [
                    5.51634,
                    0.44459,
                    -2.06329
                ],
                [
                    1.16124,
                    4.89822,
                    -0.30357
                ],
                [
                    -0.7445,
                    1.10455,
                    8.7857
                ]
            ],
            [
                [
                    3.70185,
                    -4e-05,
                    1.30095
                ],
                [
                    0.0,
                    4.43083,
                    0.0
                ],
                [
                    -0.21518,
                    3e-05,
                    3.91836
                ]
            ],
            [
                [
                    3.70185,
                    4e-05,
                    1.30095
                ],
                [
                    0.0,
                    4.43071,
                    0.0
                ],
                [
                    -0.21518,
                    -3e-05,
                    3.91836
                ]
            ],
            [
                [
                    -2.74211,
                    0.89945,
                    -0.99102
                ],
                [
                    1.03681,
                    -1.85678,
                    0.56228
                ],
                [
                    -0.90352,
                    0.58044,
                    -1.78315
                ]
            ],
            [
                [
                    -2.74236,
                    -0.89942,
                    -0.99095
                ],
                [
                    -1.03681,
                    -1.85678,
                    -0.56228
                ],
                [
                    -0.90294,
                    -0.5803,
                    -1.78306
                ]
            ],
            [
                [
                    -2.74236,
                    0.89942,
                    -0.99095
                ],
                [
                    1.03686,
                    -1.85678,
                    0.5625
                ],
                [
                    -0.90294,
                    0.5803,
                    -1.78306
                ]
            ],
            [
                [
                    -2.74211,
                    -0.89945,
                    -0.99102
                ],
                [
                    -1.03686,
                    -1.85678,
                    -0.5625
                ],
                [
                    -0.90352,
                    -0.58044,
                    -1.78315
                ]
            ],
            [
                [
                    -1.43119,
                    -0.38117,
                    0.23451
                ],
                [
                    -0.29103,
                    -2.7342,
                    0.90747
                ],
                [
                    0.26938,
                    0.97697,
                    -1.80051
                ]
            ],
            [
                [
                    -1.43121,
                    0.38159,
                    0.23464
                ],
                [
                    0.29103,
                    -2.7342,
                    -0.90747
                ],
                [
                    0.2692,
                    -0.9776,
                    -1.80074
                ]
            ],
            [
                [
                    -1.43121,
                    -0.38159,
                    0.23464
                ],
                [
                    -0.29121,
                    -2.73448,
                    0.90772
                ],
                [
                    0.2692,
                    0.9776,
                    -1.80074
                ]
            ],
            [
                [
                    -1.43119,
                    0.38117,
                    0.23451
                ],
                [
                    0.29121,
                    -2.73448,
                    -0.90772
                ],
                [
                    0.26938,
                    -0.97697,
                    -1.80051
                ]
            ],
            [
                [
                    -2.08524,
                    7e-05,
                    2.30209
                ],
                [
                    -0.0,
                    -1.2926,
                    0.0
                ],
                [
                    2.25998,
                    -0.00015,
                    -6.58252
                ]
            ],
            [
                [
                    -2.08524,
                    -7e-05,
                    2.30209
                ],
                [
                    0.0,
                    -1.29253,
                    0.0
                ],
                [
                    2.25998,
                    0.00015,
                    -6.58252
                ]
            ]
        ]
    },
    "band_gap": 2.7187,
    "is_direct": false,
    "formula": "NaTiAsO5"
}