{
    "mp_id": "mp-22766",
    "nelements": 3,
    "nsites": 14,
    "elements": [
        "Ca",
        "In",
        "O"
    ],
    "structure": {
        "@module": "pymatgen.core.structure",
        "@class": "Structure",
        "charge": null,
        "lattice": {
            "matrix": [
                [
                    0.0,
                    4.65866477,
                    4.65866477
                ],
                [
                    4.65866477,
                    0.0,
                    4.65866477
                ],
                [
                    4.65866477,
                    4.65866477,
                    0.0
                ]
            ],
            "a": 6.588346900283735,
            "b": 6.588346900283735,
            "c": 6.588346900283735,
            "alpha": 60.00000000000001,
            "beta": 60.00000000000001,
            "gamma": 60.00000000000001,
            "volume": 202.21546991989368
        },
        "sites": [
            {
                "species": [
                    {
                        "element": "Ca",
                        "occu": 1
                    }
                ],
                "abc": [
                    0.25,
                    0.25,
                    0.25
                ],
                "xyz": [
                    2.329332385,
                    2.329332385,
                    2.329332385
                ],
                "label": "Ca",
                "properties": {}
            },
            {
                "species": [
                    {
                        "element": "Ca",
                        "occu": 1
                    }
                ],
                "abc": [
                    0.0,
                    0.0,
                    0.0
                ],
                "xyz": [
                    0.0,
                    0.0,
                    0.0
                ],
                "label": "Ca",
                "properties": {}
            },
            {
                "species": [
                    {
                        "element": "In",
                        "occu": 1
                    }
                ],
                "abc": [
                    0.625,
                    0.625,
                    0.625
                ],
                "xyz": [
                    5.8233309625,
                    5.8233309625,
                    5.8233309625
                ],
                "label": "In",
                "properties": {}
            },
            {
                "species": [
                    {
                        "element": "In",
                        "occu": 1
                    }
                ],
                "abc": [
                    0.625,
                    0.125,
                    0.625
                ],
                "xyz": [
                    3.4939985775,
                    5.8233309625,
                    3.4939985775
                ],
                "label": "In",
                "properties": {}
            },
            {
                "species": [
                    {
                        "element": "In",
                        "occu": 1
                    }
                ],
                "abc": [
                    0.625,
                    0.625,
                    0.125
                ],
                "xyz": [
                    3.4939985775,
                    3.4939985775,
                    5.8233309625
                ],
                "label": "In",
                "properties": {}
            },
            {
                "species": [
                    {
                        "element": "In",
                        "occu": 1
                    }
                ],
                "abc": [
                    0.125,
                    0.625,
                    0.625
                ],
                "xyz": [
                    5.8233309625,
                    3.4939985775,
                    3.4939985775
                ],
                "label": "In",
                "properties": {}
            },
            {
                "species": [
                    {
                        "element": "O",
                        "occu": 1
                    }
                ],
                "abc": [
                    0.41311269,
                    0.86229577,
                    0.86229577
                ],
                "xyz": [
                    8.034293850038045,
                    5.941700459961954,
                    5.941700459961954
                ],
                "label": "O",
                "properties": {}
            },
            {
                "species": [
                    {
                        "element": "O",
                        "occu": 1
                    }
                ],
                "abc": [
                    0.86229577,
                    0.86229577,
                    0.41311269
                ],
                "xyz": [
                    5.941700459961954,
                    5.941700459961954,
                    8.034293850038045
                ],
                "label": "O",
                "properties": {}
            },
            {
                "species": [
                    {
                        "element": "O",
                        "occu": 1
                    }
                ],
                "abc": [
                    0.86229577,
                    0.86229577,
                    0.86229577
                ],
                "xyz": [
                    8.034293850038045,
                    8.034293850038045,
                    8.034293850038045
                ],
                "label": "O",
                "properties": {}
            },
            {
                "species": [
                    {
                        "element": "O",
                        "occu": 1
                    }
                ],
                "abc": [
                    0.83688731,
                    0.38770423,
                    0.38770423
                ],
                "xyz": [
                    3.612368074961954,
                    5.704961465038046,
                    5.704961465038046
                ],
                "label": "O",
                "properties": {}
            },
            {
                "species": [
                    {
                        "element": "O",
                        "occu": 1
                    }
                ],
                "abc": [
                    0.38770423,
                    0.83688731,
                    0.38770423
                ],
                "xyz": [
                    5.704961465038046,
                    3.612368074961954,
                    5.704961465038046
                ],
                "label": "O",
                "properties": {}
            },
            {
                "species": [
                    {
                        "element": "O",
                        "occu": 1
                    }
                ],
                "abc": [
                    0.38770423,
                    0.38770423,
                    0.83688731
                ],
                "xyz": [
                    5.704961465038046,
                    5.704961465038046,
                    3.612368074961954
                ],
                "label": "O",
                "properties": {}
            },
            {
                "species": [
                    {
                        "element": "O",
                        "occu": 1
                    }
                ],
                "abc": [
                    0.86229577,
                    0.41311269,
                    0.86229577
                ],
                "xyz": [
                    5.941700459961954,
                    8.034293850038045,
                    5.941700459961954
                ],
                "label": "O",
                "properties": {}
            },
            {
                "species": [
                    {
                        "element": "O",
                        "occu": 1
                    }
                ],
                "abc": [
                    0.38770423,
                    0.38770423,
                    0.38770423
                ],
                "xyz": [
                    3.612368074961954,
                    3.612368074961954,
                    3.612368074961954
                ],
                "label": "O",
                "properties": {}
            }
        ]
    },
    "spacegroup": {
        "source": "spglib",
        "symbol": "Fd-3m",
        "number": 227,
        "point_group": "m-3m",
        "crystal_system": "cubic",
        "hall": "F 4d 2 3 -1d"
    },
    "dielectric": {
        "epsilon_ionic": [
            [
                4.96754604,
                0.0,
                0.0
            ],
            [
                0.0,
                4.96736409,
                -0.0
            ],
            [
                0.0,
                -0.0,
                4.96492061
            ]
        ],
        "epsilon_ionic_avg": 4.966610246666667,
        "epsilon_ionic_eig": [
            4.96754604,
            4.96736409,
            4.96492061
        ],
        "epsilon_electronic": [
            [
                3.90689694,
                0.0,
                -0.0
            ],
            [
                -0.0,
                3.90689694,
                0.0
            ],
            [
                0.0,
                -0.0,
                3.90689694
            ]
        ],
        "epsilon_electronic_avg": 3.9068969400000007,
        "epsilon_electronic_eig": [
            3.90689694,
            3.90689694,
            3.90689694
        ]
    },
    "phonon": {
        "lowest_freq": -0.09243246662306329,
        "frequency": [
            -0.09243246662306329,
            -0.09243246662306329,
            -0.09243246662306329,
            2.783581598518091,
            2.783581598518091,
            2.783581598518091,
            4.38029590285544,
            4.38029590285544,
            4.38029590285544,
            4.915224925929991,
            4.915224925929991,
            6.437239437057568,
            6.437239437057568,
            6.437239437057568,
            8.358699729945696,
            8.358699729945696,
            8.358699729945696,
            8.777171216026515,
            9.149208464417525,
            9.149208464417525,
            9.149208464417525,
            9.76826273745674,
            9.76826273745674,
            11.076560127980045,
            11.076560127980045,
            11.076560127980045,
            11.361380963550546,
            11.361380963550546,
            11.361380963550546,
            13.188741904264033,
            13.188741904264033,
            13.188741904264033,
            13.985631463598263,
            13.985631463598263,
            14.414250890425542,
            14.414250890425542,
            14.414250890425542,
            15.374498550986878,
            15.374498550986878,
            15.374498550986878,
            17.056930060970586,
            17.772785436961794
        ]
    },
    "born_effective_charge": {
        "avg_abs_trace": 2.425680476190476,
        "tensors": [
            [
                [
                    2.37455,
                    -0.0,
                    -0.0
                ],
                [
                    -0.0,
                    2.37455,
                    -0.0
                ],
                [
                    -0.0,
                    -0.0,
                    2.37433
                ]
            ],
            [
                [
                    2.37455,
                    -0.0,
                    -0.0
                ],
                [
                    -0.0,
                    2.37455,
                    -0.0
                ],
                [
                    -0.0,
                    -0.0,
                    2.37433
                ]
            ],
            [
                [
                    3.05804,
                    0.42528,
                    0.42528
                ],
                [
                    0.42544,
                    3.05787,
                    0.42544
                ],
                [
                    0.4257,
                    0.4257,
                    3.0572
                ]
            ],
            [
                [
                    3.05804,
                    -0.42528,
                    0.42528
                ],
                [
                    -0.42544,
                    3.05787,
                    -0.42544
                ],
                [
                    0.4257,
                    -0.4257,
                    3.0572
                ]
            ],
            [
                [
                    3.05804,
                    0.42528,
                    -0.42528
                ],
                [
                    0.42544,
                    3.05787,
                    -0.42544
                ],
                [
                    -0.4257,
                    -0.4257,
                    3.0572
                ]
            ],
            [
                [
                    3.05804,
                    -0.42528,
                    -0.42528
                ],
                [
                    -0.42544,
                    3.05787,
                    0.42544
                ],
                [
                    -0.4257,
                    0.4257,
                    3.0572
                ]
            ],
            [
                [
                    -2.12261,
                    0.0851,
                    0.0851
                ],
                [
                    0.085,
                    -2.12252,
                    -0.085
                ],
                [
                    0.0854,
                    -0.0854,
                    -2.12202
                ]
            ],
            [
                [
                    -2.12271,
                    -0.08505,
                    0.08505
                ],
                [
                    -0.085,
                    -2.12252,
                    0.085
                ],
                [
                    0.08545,
                    0.08545,
                    -2.12234
                ]
            ],
            [
                [
                    -2.12261,
                    -0.0851,
                    -0.0851
                ],
                [
                    -0.08493,
                    -2.12262,
                    -0.08493
                ],
                [
                    -0.08545,
                    -0.08545,
                    -2.12234
                ]
            ],
            [
                [
                    -2.12271,
                    0.08505,
                    0.08505
                ],
                [
                    0.08493,
                    -2.12262,
                    -0.08493
                ],
                [
                    0.08545,
                    -0.08545,
                    -2.12234
                ]
            ],
            [
                [
                    -2.12261,
                    0.0851,
                    -0.0851
                ],
                [
                    0.085,
                    -2.12252,
                    0.085
                ],
                [
                    -0.08545,
                    0.08545,
                    -2.12234
                ]
            ],
            [
                [
                    -2.12261,
                    -0.0851,
                    0.0851
                ],
                [
                    -0.08493,
                    -2.12262,
                    0.08493
                ],
                [
                    0.0854,
                    0.0854,
                    -2.12202
                ]
            ],
            [
                [
                    -2.12271,
                    0.08505,
                    -0.08505
                ],
                [
                    0.08493,
                    -2.12262,
                    0.08493
                ],
                [
                    -0.0854,
                    0.0854,
                    -2.12202
                ]
            ],
            [
                [
                    -2.12271,
                    -0.08505,
                    -0.08505
                ],
                [
                    -0.085,
                    -2.12252,
                    -0.085
                ],
                [
                    -0.0854,
                    -0.0854,
                    -2.12202
                ]
            ]
        ]
    },
    "band_gap": 2.0755,
    "is_direct": true,
    "formula": "CaIn2O4"
}