{
    "mp_id": "mp-29454",
    "nelements": 3,
    "nsites": 24,
    "elements": [
        "Na",
        "O",
        "Tl"
    ],
    "structure": {
        "@module": "pymatgen.core.structure",
        "@class": "Structure",
        "charge": null,
        "lattice": {
            "matrix": [
                [
                    11.37901206,
                    0.0,
                    0.0
                ],
                [
                    0.0,
                    6.65382561,
                    0.0
                ],
                [
                    0.0,
                    0.0,
                    5.30128
                ]
            ],
            "a": 11.37901206,
            "b": 6.65382561,
            "c": 5.30128,
            "alpha": 90.0,
            "beta": 90.0,
            "gamma": 90.0,
            "volume": 401.3809117362149
        },
        "sites": [
            {
                "species": [
                    {
                        "element": "Na",
                        "occu": 1
                    }
                ],
                "abc": [
                    0.33378419,
                    0.00164401,
                    0.7462294
                ],
                "xyz": [
                    3.7981343234473313,
                    0.010938955841096101,
                    3.9559709936320004
                ],
                "label": "Na",
                "properties": {}
            },
            {
                "species": [
                    {
                        "element": "Na",
                        "occu": 1
                    }
                ],
                "abc": [
                    0.16621581,
                    0.50164401,
                    0.2462294
                ],
                "xyz": [
                    1.8913717065526687,
                    3.3378517608410965,
                    1.305330993632
                ],
                "label": "Na",
                "properties": {}
            },
            {
                "species": [
                    {
                        "element": "Na",
                        "occu": 1
                    }
                ],
                "abc": [
                    0.83378419,
                    0.00164401,
                    0.7537706
                ],
                "xyz": [
                    9.487640353447333,
                    0.010938955841096101,
                    3.995949006368
                ],
                "label": "Na",
                "properties": {}
            },
            {
                "species": [
                    {
                        "element": "Na",
                        "occu": 1
                    }
                ],
                "abc": [
                    0.66621581,
                    0.99835599,
                    0.2537706
                ],
                "xyz": [
                    7.580877736552669,
                    6.642886654158904,
                    1.3453090063680002
                ],
                "label": "Na",
                "properties": {}
            },
            {
                "species": [
                    {
                        "element": "Na",
                        "occu": 1
                    }
                ],
                "abc": [
                    0.07677707,
                    0.25,
                    0.74804681
                ],
                "xyz": [
                    0.8736472054614643,
                    1.6634564025,
                    3.9656055929167997
                ],
                "label": "Na",
                "properties": {}
            },
            {
                "species": [
                    {
                        "element": "Na",
                        "occu": 1
                    }
                ],
                "abc": [
                    0.42322293,
                    0.75,
                    0.24804681
                ],
                "xyz": [
                    4.8158588245385365,
                    4.990369207500001,
                    1.3149655929168
                ],
                "label": "Na",
                "properties": {}
            },
            {
                "species": [
                    {
                        "element": "Na",
                        "occu": 1
                    }
                ],
                "abc": [
                    0.92322293,
                    0.75,
                    0.25195319
                ],
                "xyz": [
                    10.505364854538536,
                    4.990369207500001,
                    1.3356744070832
                ],
                "label": "Na",
                "properties": {}
            },
            {
                "species": [
                    {
                        "element": "Na",
                        "occu": 1
                    }
                ],
                "abc": [
                    0.57677707,
                    0.25,
                    0.75195319
                ],
                "xyz": [
                    6.563153235461464,
                    1.6634564025,
                    3.9863144070832006
                ],
                "label": "Na",
                "properties": {}
            },
            {
                "species": [
                    {
                        "element": "Na",
                        "occu": 1
                    }
                ],
                "abc": [
                    0.66621581,
                    0.50164401,
                    0.2537706
                ],
                "xyz": [
                    7.580877736552669,
                    3.3378517608410965,
                    1.3453090063680002
                ],
                "label": "Na",
                "properties": {}
            },
            {
                "species": [
                    {
                        "element": "Na",
                        "occu": 1
                    }
                ],
                "abc": [
                    0.83378419,
                    0.49835599,
                    0.7537706
                ],
                "xyz": [
                    9.487640353447333,
                    3.315973849158904,
                    3.995949006368
                ],
                "label": "Na",
                "properties": {}
            },
            {
                "species": [
                    {
                        "element": "Na",
                        "occu": 1
                    }
                ],
                "abc": [
                    0.33378419,
                    0.49835599,
                    0.7462294
                ],
                "xyz": [
                    3.7981343234473313,
                    3.315973849158904,
                    3.9559709936320004
                ],
                "label": "Na",
                "properties": {}
            },
            {
                "species": [
                    {
                        "element": "Na",
                        "occu": 1
                    }
                ],
                "abc": [
                    0.16621581,
                    0.99835599,
                    0.2462294
                ],
                "xyz": [
                    1.8913717065526687,
                    6.642886654158904,
                    1.305330993632
                ],
                "label": "Na",
                "properties": {}
            },
            {
                "species": [
                    {
                        "element": "Tl",
                        "occu": 1
                    }
                ],
                "abc": [
                    0.59092554,
                    0.75,
                    0.74089239
                ],
                "xyz": [
                    6.724148846222013,
                    4.990369207500001,
                    3.9276780092592
                ],
                "label": "Tl",
                "properties": {}
            },
            {
                "species": [
                    {
                        "element": "Tl",
                        "occu": 1
                    }
                ],
                "abc": [
                    0.90907446,
                    0.25,
                    0.24089239
                ],
                "xyz": [
                    10.344369243777988,
                    1.6634564025,
                    1.2770380092592002
                ],
                "label": "Tl",
                "properties": {}
            },
            {
                "species": [
                    {
                        "element": "Tl",
                        "occu": 1
                    }
                ],
                "abc": [
                    0.40907446,
                    0.25,
                    0.25910761
                ],
                "xyz": [
                    4.654863213777988,
                    1.6634564025,
                    1.3736019907408
                ],
                "label": "Tl",
                "properties": {}
            },
            {
                "species": [
                    {
                        "element": "Tl",
                        "occu": 1
                    }
                ],
                "abc": [
                    0.09092554,
                    0.75,
                    0.75910761
                ],
                "xyz": [
                    1.0346428162220125,
                    4.990369207500001,
                    4.0242419907408005
                ],
                "label": "Tl",
                "properties": {}
            },
            {
                "species": [
                    {
                        "element": "O",
                        "occu": 1
                    }
                ],
                "abc": [
                    0.75843743,
                    0.75,
                    0.49201702
                ],
                "xyz": [
                    8.630268662725406,
                    4.990369207500001,
                    2.6083199877856003
                ],
                "label": "O",
                "properties": {}
            },
            {
                "species": [
                    {
                        "element": "O",
                        "occu": 1
                    }
                ],
                "abc": [
                    0.74156257,
                    0.25,
                    0.99201702
                ],
                "xyz": [
                    8.438249427274595,
                    1.6634564025,
                    5.2589599877856
                ],
                "label": "O",
                "properties": {}
            },
            {
                "species": [
                    {
                        "element": "O",
                        "occu": 1
                    }
                ],
                "abc": [
                    0.24156257,
                    0.25,
                    0.50798298
                ],
                "xyz": [
                    2.7487433972745943,
                    1.6634564025,
                    2.6929600122144
                ],
                "label": "O",
                "properties": {}
            },
            {
                "species": [
                    {
                        "element": "O",
                        "occu": 1
                    }
                ],
                "abc": [
                    0.25843743,
                    0.75,
                    0.00798298
                ],
                "xyz": [
                    2.940762632725406,
                    4.990369207500001,
                    0.0423200122144
                ],
                "label": "O",
                "properties": {}
            },
            {
                "species": [
                    {
                        "element": "O",
                        "occu": 1
                    }
                ],
                "abc": [
                    0.5,
                    0.5,
                    0.5
                ],
                "xyz": [
                    5.68950603,
                    3.326912805,
                    2.65064
                ],
                "label": "O",
                "properties": {}
            },
            {
                "species": [
                    {
                        "element": "O",
                        "occu": 1
                    }
                ],
                "abc": [
                    0.0,
                    0.5,
                    0.0
                ],
                "xyz": [
                    0.0,
                    3.326912805,
                    0.0
                ],
                "label": "O",
                "properties": {}
            },
            {
                "species": [
                    {
                        "element": "O",
                        "occu": 1
                    }
                ],
                "abc": [
                    0.5,
                    0.0,
                    0.5
                ],
                "xyz": [
                    5.68950603,
                    0.0,
                    2.65064
                ],
                "label": "O",
                "properties": {}
            },
            {
                "species": [
                    {
                        "element": "O",
                        "occu": 1
                    }
                ],
                "abc": [
                    0.0,
                    0.0,
                    0.0
                ],
                "xyz": [
                    0.0,
                    0.0,
                    0.0
                ],
                "label": "O",
                "properties": {}
            }
        ]
    },
    "spacegroup": {
        "source": "spglib",
        "symbol": "Pnma",
        "number": 62,
        "point_group": "mmm",
        "crystal_system": "orthorhombic",
        "hall": "-P 2ac 2n"
    },
    "dielectric": {
        "epsilon_ionic": [
            [
                6.60173459,
                3e-08,
                5e-08
            ],
            [
                3e-08,
                8.58926182,
                1.1e-07
            ],
            [
                5e-08,
                1.1e-07,
                4.44789497
            ]
        ],
        "epsilon_ionic_avg": 6.546297126666666,
        "epsilon_ionic_eig": [
            6.601734590000001,
            4.447894969999995,
            8.589261820000003
        ],
        "epsilon_electronic": [
            [
                4.81762983,
                0.0,
                0.0
            ],
            [
                0.0,
                5.12068989,
                0.0
            ],
            [
                0.0,
                0.0,
                4.79291305
            ]
        ],
        "epsilon_electronic_avg": 4.910410923333333,
        "epsilon_electronic_eig": [
            4.81762983,
            5.12068989,
            4.79291305
        ]
    },
    "phonon": {
        "lowest_freq": -0.030686275423184098,
        "frequency": [
            -0.030686275423184098,
            -0.021855056387916016,
            -0.019097751652536677,
            1.5052171622065775,
            1.6906382245274514,
            1.905027060574097,
            2.0017649748732986,
            2.213482374189802,
            2.27984046104663,
            2.616340334662708,
            2.849778661485376,
            2.963420562960881,
            2.982679257727516,
            3.186474691414702,
            3.3833300679010825,
            3.4312569297197317,
            3.444581858388222,
            3.49974802005235,
            3.702250233361909,
            3.8511863134691673,
            3.97412238190558,
            4.35026677886228,
            4.556329223064454,
            4.687821055708907,
            4.710946438488253,
            4.831278701440847,
            4.994157532842525,
            5.107048851425931,
            5.3870370240831855,
            5.521839725853271,
            5.530903835530289,
            5.7709229319217705,
            5.809236851460336,
            5.8926669743464695,
            5.945503280774526,
            6.065748695384136,
            6.077738091119529,
            6.083243021205408,
            6.129029958070624,
            6.226259645285618,
            6.51602853766094,
            6.593605819739033,
            6.623058992234866,
            6.963311032093309,
            7.031054884885001,
            7.335567172180198,
            7.717158504678293,
            8.0235069253394,
            8.360880061943064,
            8.43087011382434,
            8.515817059818005,
            8.622122805224432,
            8.676265445225036,
            8.811762364806237,
            8.849083328540265,
            8.922992804871093,
            8.994223391492525,
            8.996961715254953,
            9.027156865371417,
            9.069724416930388,
            9.73862060921628,
            9.823292549819106,
            9.871858176011331,
            9.881473445504788,
            9.912714027951358,
            10.26557043376826,
            10.624086902483894,
            10.829929830625174,
            11.299340066044904,
            13.052402615435438,
            13.402894829369266,
            13.426844607854283
        ]
    },
    "born_effective_charge": {
        "avg_abs_trace": 1.4957077777777776,
        "tensors": [
            [
                [
                    1.06058,
                    0.26903,
                    0.07079
                ],
                [
                    0.13428,
                    0.97644,
                    0.07038
                ],
                [
                    -0.10728,
                    0.11191,
                    1.00089
                ]
            ],
            [
                [
                    1.06049,
                    -0.26909,
                    -0.07081
                ],
                [
                    -0.13428,
                    0.97644,
                    0.07038
                ],
                [
                    0.10728,
                    0.11191,
                    1.00089
                ]
            ],
            [
                [
                    1.06058,
                    0.26903,
                    -0.07079
                ],
                [
                    0.13428,
                    0.97644,
                    -0.07038
                ],
                [
                    0.10747,
                    -0.11196,
                    1.00082
                ]
            ],
            [
                [
                    1.06049,
                    0.26909,
                    0.07081
                ],
                [
                    0.13416,
                    0.97646,
                    0.07024
                ],
                [
                    -0.10747,
                    0.11196,
                    1.00082
                ]
            ],
            [
                [
                    0.99044,
                    0.0,
                    0.06904
                ],
                [
                    -5e-05,
                    1.15969,
                    -0.00016
                ],
                [
                    0.23514,
                    -0.0,
                    1.02031
                ]
            ],
            [
                [
                    0.99046,
                    0.0,
                    -0.06895
                ],
                [
                    5e-05,
                    1.15969,
                    -0.00016
                ],
                [
                    -0.23514,
                    -0.0,
                    1.02031
                ]
            ],
            [
                [
                    0.99046,
                    0.0,
                    0.06895
                ],
                [
                    5e-05,
                    1.15969,
                    0.00016
                ],
                [
                    0.23529,
                    -0.0,
                    1.02036
                ]
            ],
            [
                [
                    0.99044,
                    0.0,
                    -0.06904
                ],
                [
                    -5e-05,
                    1.15969,
                    0.00016
                ],
                [
                    -0.23529,
                    -0.0,
                    1.02036
                ]
            ],
            [
                [
                    1.06049,
                    -0.26909,
                    0.07081
                ],
                [
                    -0.13428,
                    0.97644,
                    -0.07038
                ],
                [
                    -0.10747,
                    -0.11196,
                    1.00082
                ]
            ],
            [
                [
                    1.06058,
                    -0.26903,
                    -0.07079
                ],
                [
                    -0.13416,
                    0.97646,
                    0.07024
                ],
                [
                    0.10747,
                    0.11196,
                    1.00082
                ]
            ],
            [
                [
                    1.06058,
                    -0.26903,
                    0.07079
                ],
                [
                    -0.13416,
                    0.97646,
                    -0.07024
                ],
                [
                    -0.10728,
                    -0.11191,
                    1.00089
                ]
            ],
            [
                [
                    1.06049,
                    0.26909,
                    -0.07081
                ],
                [
                    0.13416,
                    0.97646,
                    -0.07024
                ],
                [
                    0.10728,
                    -0.11191,
                    1.00089
                ]
            ],
            [
                [
                    1.55117,
                    0.0,
                    -0.09044
                ],
                [
                    -0.00065,
                    1.64123,
                    0.00012
                ],
                [
                    -0.08524,
                    -0.0,
                    1.02317
                ]
            ],
            [
                [
                    1.55135,
                    0.0,
                    0.09025
                ],
                [
                    0.00065,
                    1.64123,
                    0.00012
                ],
                [
                    0.08524,
                    -0.0,
                    1.02317
                ]
            ],
            [
                [
                    1.55135,
                    0.0,
                    -0.09025
                ],
                [
                    0.00065,
                    1.64123,
                    -0.00012
                ],
                [
                    -0.08493,
                    -0.0,
                    1.02228
                ]
            ],
            [
                [
                    1.55117,
                    0.0,
                    0.09044
                ],
                [
                    -0.00065,
                    1.64123,
                    -0.00012
                ],
                [
                    0.08493,
                    -0.0,
                    1.02228
                ]
            ],
            [
                [
                    -2.83275,
                    0.0,
                    0.88852
                ],
                [
                    -0.00027,
                    -1.69207,
                    0.0002
                ],
                [
                    0.43209,
                    -0.0,
                    -2.0275
                ]
            ],
            [
                [
                    -2.83296,
                    0.0,
                    -0.88823
                ],
                [
                    0.00027,
                    -1.69207,
                    0.0002
                ],
                [
                    -0.43209,
                    -0.0,
                    -2.0275
                ]
            ],
            [
                [
                    -2.83296,
                    0.0,
                    0.88823
                ],
                [
                    0.00027,
                    -1.69207,
                    -0.0002
                ],
                [
                    0.43139,
                    -0.0,
                    -2.02791
                ]
            ],
            [
                [
                    -2.83275,
                    0.0,
                    -0.88852
                ],
                [
                    -0.00027,
                    -1.69207,
                    -0.0002
                ],
                [
                    -0.43139,
                    -0.0,
                    -2.02791
                ]
            ],
            [
                [
                    -1.82992,
                    -0.88387,
                    -0.82182
                ],
                [
                    -1.24815,
                    -3.06176,
                    -1.49424
                ],
                [
                    -0.34316,
                    -0.6103,
                    -2.01706
                ]
            ],
            [
                [
                    -1.82992,
                    -0.88387,
                    0.82182
                ],
                [
                    -1.24815,
                    -3.06176,
                    1.49424
                ],
                [
                    0.34316,
                    0.6103,
                    -2.01706
                ]
            ],
            [
                [
                    -1.82992,
                    0.88387,
                    -0.82182
                ],
                [
                    1.24815,
                    -3.06176,
                    1.49424
                ],
                [
                    -0.34316,
                    0.6103,
                    -2.01706
                ]
            ],
            [
                [
                    -1.82992,
                    0.88387,
                    0.82182
                ],
                [
                    1.24815,
                    -3.06176,
                    -1.49424
                ],
                [
                    0.34316,
                    -0.6103,
                    -2.01706
                ]
            ]
        ]
    },
    "band_gap": 1.8860000000000001,
    "is_direct": false,
    "formula": "Na3TlO2"
}