{
    "mp_id": "mp-21461",
    "nelements": 3,
    "nsites": 24,
    "elements": [
        "O",
        "Pb",
        "Rb"
    ],
    "structure": {
        "@module": "pymatgen.core.structure",
        "@class": "Structure",
        "charge": null,
        "lattice": {
            "matrix": [
                [
                    6.07751194,
                    0.0,
                    0.0
                ],
                [
                    0.0,
                    10.91299681,
                    0.0
                ],
                [
                    0.0,
                    0.0,
                    7.3246405
                ]
            ],
            "a": 6.07751194,
            "b": 10.91299681,
            "c": 7.3246405,
            "alpha": 90.0,
            "beta": 90.0,
            "gamma": 90.0,
            "volume": 485.7984927015395
        },
        "sites": [
            {
                "species": [
                    {
                        "element": "Rb",
                        "occu": 1
                    }
                ],
                "abc": [
                    0.7669442,
                    0.08673697,
                    0.39096607
                ],
                "xyz": [
                    4.661112532813748,
                    0.9465602769190656,
                    2.863685910447835
                ],
                "label": "Rb",
                "properties": {}
            },
            {
                "species": [
                    {
                        "element": "Rb",
                        "occu": 1
                    }
                ],
                "abc": [
                    0.7330558,
                    0.91326303,
                    0.89096607
                ],
                "xyz": [
                    4.455155377186252,
                    9.966436533080934,
                    6.526006160447835
                ],
                "label": "Rb",
                "properties": {}
            },
            {
                "species": [
                    {
                        "element": "Rb",
                        "occu": 1
                    }
                ],
                "abc": [
                    0.2669442,
                    0.08673697,
                    0.10903393
                ],
                "xyz": [
                    1.6223565628137482,
                    0.9465602769190656,
                    0.798634339552165
                ],
                "label": "Rb",
                "properties": {}
            },
            {
                "species": [
                    {
                        "element": "Rb",
                        "occu": 1
                    }
                ],
                "abc": [
                    0.2669442,
                    0.41326303,
                    0.10903393
                ],
                "xyz": [
                    1.6223565628137482,
                    4.509938128080933,
                    0.798634339552165
                ],
                "label": "Rb",
                "properties": {}
            },
            {
                "species": [
                    {
                        "element": "Rb",
                        "occu": 1
                    }
                ],
                "abc": [
                    0.2330558,
                    0.58673697,
                    0.60903393
                ],
                "xyz": [
                    1.416399407186252,
                    6.403058681919066,
                    4.4609545895521645
                ],
                "label": "Rb",
                "properties": {}
            },
            {
                "species": [
                    {
                        "element": "Rb",
                        "occu": 1
                    }
                ],
                "abc": [
                    0.7330558,
                    0.58673697,
                    0.89096607
                ],
                "xyz": [
                    4.455155377186252,
                    6.403058681919066,
                    6.526006160447835
                ],
                "label": "Rb",
                "properties": {}
            },
            {
                "species": [
                    {
                        "element": "Rb",
                        "occu": 1
                    }
                ],
                "abc": [
                    0.2330558,
                    0.91326303,
                    0.60903393
                ],
                "xyz": [
                    1.416399407186252,
                    9.966436533080934,
                    4.4609545895521645
                ],
                "label": "Rb",
                "properties": {}
            },
            {
                "species": [
                    {
                        "element": "Rb",
                        "occu": 1
                    }
                ],
                "abc": [
                    0.7669442,
                    0.41326303,
                    0.39096607
                ],
                "xyz": [
                    4.661112532813748,
                    4.509938128080933,
                    2.863685910447835
                ],
                "label": "Rb",
                "properties": {}
            },
            {
                "species": [
                    {
                        "element": "Pb",
                        "occu": 1
                    }
                ],
                "abc": [
                    0.26854225,
                    0.75,
                    0.15653145
                ],
                "xyz": [
                    1.6320687307694648,
                    8.1847476075,
                    1.146536598193725
                ],
                "label": "Pb",
                "properties": {}
            },
            {
                "species": [
                    {
                        "element": "Pb",
                        "occu": 1
                    }
                ],
                "abc": [
                    0.73145775,
                    0.25,
                    0.84346855
                ],
                "xyz": [
                    4.445443209230535,
                    2.7282492025,
                    6.178103901806275
                ],
                "label": "Pb",
                "properties": {}
            },
            {
                "species": [
                    {
                        "element": "Pb",
                        "occu": 1
                    }
                ],
                "abc": [
                    0.76854225,
                    0.75,
                    0.34346855
                ],
                "xyz": [
                    4.670824700769465,
                    8.1847476075,
                    2.515783651806275
                ],
                "label": "Pb",
                "properties": {}
            },
            {
                "species": [
                    {
                        "element": "Pb",
                        "occu": 1
                    }
                ],
                "abc": [
                    0.23145775,
                    0.25,
                    0.65653145
                ],
                "xyz": [
                    1.406687239230535,
                    2.7282492025,
                    4.8088568481937255
                ],
                "label": "Pb",
                "properties": {}
            },
            {
                "species": [
                    {
                        "element": "O",
                        "occu": 1
                    }
                ],
                "abc": [
                    0.00702385,
                    0.61865989,
                    0.22497521
                ],
                "xyz": [
                    0.042687532239769,
                    6.75143340604495,
                    1.647862534662005
                ],
                "label": "O",
                "properties": {}
            },
            {
                "species": [
                    {
                        "element": "O",
                        "occu": 1
                    }
                ],
                "abc": [
                    0.14958307,
                    0.25,
                    0.3834578
                ],
                "xyz": [
                    0.9090928939468559,
                    2.7282492025,
                    2.8086905319209
                ],
                "label": "O",
                "properties": {}
            },
            {
                "species": [
                    {
                        "element": "O",
                        "occu": 1
                    }
                ],
                "abc": [
                    0.49297615,
                    0.11865989,
                    0.72497521
                ],
                "xyz": [
                    2.996068437760231,
                    1.2949350010449507,
                    5.310182784662005
                ],
                "label": "O",
                "properties": {}
            },
            {
                "species": [
                    {
                        "element": "O",
                        "occu": 1
                    }
                ],
                "abc": [
                    0.99297615,
                    0.11865989,
                    0.77502479
                ],
                "xyz": [
                    6.03482440776023,
                    1.2949350010449507,
                    5.676777965337995
                ],
                "label": "O",
                "properties": {}
            },
            {
                "species": [
                    {
                        "element": "O",
                        "occu": 1
                    }
                ],
                "abc": [
                    0.00702385,
                    0.88134011,
                    0.22497521
                ],
                "xyz": [
                    0.042687532239769,
                    9.618061808955048,
                    1.647862534662005
                ],
                "label": "O",
                "properties": {}
            },
            {
                "species": [
                    {
                        "element": "O",
                        "occu": 1
                    }
                ],
                "abc": [
                    0.85041693,
                    0.75,
                    0.6165422
                ],
                "xyz": [
                    5.168419046053144,
                    8.1847476075,
                    4.5159499680791
                ],
                "label": "O",
                "properties": {}
            },
            {
                "species": [
                    {
                        "element": "O",
                        "occu": 1
                    }
                ],
                "abc": [
                    0.49297615,
                    0.38134011,
                    0.72497521
                ],
                "xyz": [
                    2.996068437760231,
                    4.161563403955049,
                    5.310182784662005
                ],
                "label": "O",
                "properties": {}
            },
            {
                "species": [
                    {
                        "element": "O",
                        "occu": 1
                    }
                ],
                "abc": [
                    0.35041693,
                    0.75,
                    0.8834578
                ],
                "xyz": [
                    2.129663076053144,
                    8.1847476075,
                    6.4710107819209
                ],
                "label": "O",
                "properties": {}
            },
            {
                "species": [
                    {
                        "element": "O",
                        "occu": 1
                    }
                ],
                "abc": [
                    0.64958307,
                    0.25,
                    0.1165422
                ],
                "xyz": [
                    3.947848863946856,
                    2.7282492025,
                    0.8536297180791
                ],
                "label": "O",
                "properties": {}
            },
            {
                "species": [
                    {
                        "element": "O",
                        "occu": 1
                    }
                ],
                "abc": [
                    0.50702385,
                    0.61865989,
                    0.27502479
                ],
                "xyz": [
                    3.0814435022397695,
                    6.75143340604495,
                    2.0144577153379952
                ],
                "label": "O",
                "properties": {}
            },
            {
                "species": [
                    {
                        "element": "O",
                        "occu": 1
                    }
                ],
                "abc": [
                    0.50702385,
                    0.88134011,
                    0.27502479
                ],
                "xyz": [
                    3.0814435022397695,
                    9.618061808955048,
                    2.0144577153379952
                ],
                "label": "O",
                "properties": {}
            },
            {
                "species": [
                    {
                        "element": "O",
                        "occu": 1
                    }
                ],
                "abc": [
                    0.99297615,
                    0.38134011,
                    0.77502479
                ],
                "xyz": [
                    6.03482440776023,
                    4.161563403955049,
                    5.676777965337995
                ],
                "label": "O",
                "properties": {}
            }
        ]
    },
    "spacegroup": {
        "source": "spglib",
        "symbol": "Pnma",
        "number": 62,
        "point_group": "mmm",
        "crystal_system": "orthorhombic",
        "hall": "-P 2ac 2n"
    },
    "dielectric": {
        "epsilon_ionic": [
            [
                7.73871007,
                4e-08,
                -6e-08
            ],
            [
                4e-08,
                4.27686006,
                -2e-08
            ],
            [
                -6e-08,
                -2e-08,
                5.03746758
            ]
        ],
        "epsilon_ionic_avg": 5.684345903333335,
        "epsilon_ionic_eig": [
            7.738710070000003,
            5.03746758,
            4.276860059999999
        ],
        "epsilon_electronic": [
            [
                4.38418684,
                0.0,
                0.0
            ],
            [
                0.0,
                3.38562075,
                0.0
            ],
            [
                0.0,
                0.0,
                3.58426913
            ]
        ],
        "epsilon_electronic_avg": 3.78469224,
        "epsilon_electronic_eig": [
            4.38418684,
            3.38562075,
            3.58426913
        ]
    },
    "phonon": {
        "lowest_freq": -0.08279230338503328,
        "frequency": [
            -0.08279230338503328,
            -0.056282133790935,
            -0.04312556321140063,
            1.1883896303043893,
            1.2453744300637273,
            1.2774943741511433,
            1.540620367090735,
            1.5505716038043018,
            1.8987662735770026,
            1.9711195805327442,
            1.9992346544479316,
            2.086167573462481,
            2.1187807221961124,
            2.231028407919456,
            2.2359113225243505,
            2.3462439329131923,
            2.360176953076599,
            2.3726154669246293,
            2.429982375376875,
            2.5039229671252965,
            2.530993847639899,
            2.5789073251916337,
            2.7242364104758217,
            2.7596625502677568,
            2.7955219332694696,
            2.961738747536794,
            2.9916387743144157,
            3.0042434573086183,
            3.024203108021239,
            3.1179813728475283,
            3.13050400569314,
            3.2466355772187607,
            3.3557695679423376,
            3.550576474011301,
            3.6385195605434397,
            3.796877957720102,
            3.831306522606289,
            3.8721712593176574,
            4.283921413260976,
            4.5886717646437996,
            4.909074150980974,
            4.918066608990728,
            6.077571267895987,
            6.177412256074853,
            6.2107490809708175,
            6.291445825698278,
            6.442069122623425,
            6.442510536748581,
            6.449210509803751,
            6.709295336179378,
            7.552961463006003,
            7.8522297781190105,
            10.007054873682184,
            10.009166720922236,
            11.173790950778976,
            11.351350626177629,
            11.517009433614263,
            11.53147518256225,
            12.803125881768391,
            13.586905997031407,
            13.66141187307746,
            14.066956568567841,
            14.095838230618412,
            14.157351668498087,
            14.776502939342393,
            14.830188838727182,
            14.873173831596649,
            15.15492049946562,
            16.981491428258956,
            17.010356110547516,
            17.487944645137876,
            17.671619114163576
        ]
    },
    "born_effective_charge": {
        "avg_abs_trace": 1.9133566666666664,
        "tensors": [
            [
                [
                    1.13902,
                    0.05711,
                    -0.07407
                ],
                [
                    0.06815,
                    1.31589,
                    0.15506
                ],
                [
                    0.11779,
                    0.0238,
                    1.26506
                ]
            ],
            [
                [
                    1.13914,
                    0.05694,
                    0.07414
                ],
                [
                    0.06814,
                    1.31589,
                    -0.15497
                ],
                [
                    -0.11779,
                    -0.0238,
                    1.26506
                ]
            ],
            [
                [
                    1.13902,
                    0.05711,
                    0.07407
                ],
                [
                    0.06815,
                    1.31589,
                    -0.15506
                ],
                [
                    -0.1172,
                    -0.02283,
                    1.26583
                ]
            ],
            [
                [
                    1.13902,
                    -0.05711,
                    0.07407
                ],
                [
                    -0.06814,
                    1.31589,
                    0.15497
                ],
                [
                    -0.1172,
                    0.02283,
                    1.26583
                ]
            ],
            [
                [
                    1.13914,
                    -0.05694,
                    -0.07414
                ],
                [
                    -0.06815,
                    1.31589,
                    -0.15506
                ],
                [
                    0.1172,
                    -0.02283,
                    1.26583
                ]
            ],
            [
                [
                    1.13914,
                    -0.05694,
                    0.07414
                ],
                [
                    -0.06815,
                    1.31589,
                    0.15506
                ],
                [
                    -0.11779,
                    0.0238,
                    1.26506
                ]
            ],
            [
                [
                    1.13914,
                    0.05694,
                    -0.07414
                ],
                [
                    0.06814,
                    1.31589,
                    0.15497
                ],
                [
                    0.1172,
                    0.02283,
                    1.26583
                ]
            ],
            [
                [
                    1.13902,
                    -0.05711,
                    -0.07407
                ],
                [
                    -0.06814,
                    1.31589,
                    -0.15497
                ],
                [
                    0.11779,
                    -0.0238,
                    1.26506
                ]
            ],
            [
                [
                    4.60023,
                    -0.0,
                    0.3264
                ],
                [
                    -3e-05,
                    2.24751,
                    -4e-05
                ],
                [
                    -0.14839,
                    0.0,
                    2.93119
                ]
            ],
            [
                [
                    4.60009,
                    -0.0,
                    0.32673
                ],
                [
                    3e-05,
                    2.24751,
                    4e-05
                ],
                [
                    -0.14843,
                    0.0,
                    2.93223
                ]
            ],
            [
                [
                    4.60023,
                    -0.0,
                    -0.3264
                ],
                [
                    -3e-05,
                    2.24751,
                    4e-05
                ],
                [
                    0.14843,
                    0.0,
                    2.93223
                ]
            ],
            [
                [
                    4.60009,
                    -0.0,
                    -0.32673
                ],
                [
                    3e-05,
                    2.24751,
                    -4e-05
                ],
                [
                    0.14839,
                    0.0,
                    2.93119
                ]
            ],
            [
                [
                    -2.62464,
                    -0.061,
                    0.48454
                ],
                [
                    -0.04586,
                    -1.71543,
                    -0.07981
                ],
                [
                    0.33473,
                    -0.08171,
                    -1.51777
                ]
            ],
            [
                [
                    -1.62932,
                    -0.0,
                    0.13064
                ],
                [
                    3e-05,
                    -1.44846,
                    0.0001
                ],
                [
                    -0.13817,
                    0.0,
                    -2.42687
                ]
            ],
            [
                [
                    -2.62427,
                    0.06084,
                    -0.48405
                ],
                [
                    0.04586,
                    -1.71543,
                    -0.07981
                ],
                [
                    -0.33473,
                    -0.08171,
                    -1.51777
                ]
            ],
            [
                [
                    -2.62427,
                    0.06084,
                    0.48405
                ],
                [
                    0.04586,
                    -1.71543,
                    0.07981
                ],
                [
                    0.33452,
                    0.08174,
                    -1.51775
                ]
            ],
            [
                [
                    -2.62464,
                    0.061,
                    0.48454
                ],
                [
                    0.04581,
                    -1.71539,
                    0.07985
                ],
                [
                    0.33473,
                    0.08171,
                    -1.51777
                ]
            ],
            [
                [
                    -1.62951,
                    -0.0,
                    0.1306
                ],
                [
                    -3e-05,
                    -1.44846,
                    -0.0001
                ],
                [
                    -0.13815,
                    0.0,
                    -2.4273
                ]
            ],
            [
                [
                    -2.62427,
                    -0.06084,
                    -0.48405
                ],
                [
                    -0.04581,
                    -1.71539,
                    0.07985
                ],
                [
                    -0.33473,
                    0.08171,
                    -1.51777
                ]
            ],
            [
                [
                    -1.62951,
                    -0.0,
                    -0.1306
                ],
                [
                    -3e-05,
                    -1.44846,
                    0.0001
                ],
                [
                    0.13817,
                    0.0,
                    -2.42687
                ]
            ],
            [
                [
                    -1.62932,
                    -0.0,
                    -0.13064
                ],
                [
                    3e-05,
                    -1.44846,
                    -0.0001
                ],
                [
                    0.13815,
                    0.0,
                    -2.4273
                ]
            ],
            [
                [
                    -2.62464,
                    -0.061,
                    -0.48454
                ],
                [
                    -0.04586,
                    -1.71543,
                    0.07981
                ],
                [
                    -0.33452,
                    0.08174,
                    -1.51775
                ]
            ],
            [
                [
                    -2.62464,
                    0.061,
                    -0.48454
                ],
                [
                    0.04581,
                    -1.71539,
                    -0.07985
                ],
                [
                    -0.33452,
                    -0.08174,
                    -1.51775
                ]
            ],
            [
                [
                    -2.62427,
                    -0.06084,
                    0.48405
                ],
                [
                    -0.04581,
                    -1.71539,
                    -0.07985
                ],
                [
                    0.33452,
                    -0.08174,
                    -1.51775
                ]
            ]
        ]
    },
    "band_gap": 1.3148,
    "is_direct": false,
    "formula": "Rb2PbO3"
}