{
    "mp_id": "mp-2898",
    "nelements": 3,
    "nsites": 14,
    "elements": [
        "Au",
        "Ca",
        "O"
    ],
    "structure": {
        "@module": "pymatgen.core.structure",
        "@class": "Structure",
        "charge": null,
        "lattice": {
            "matrix": [
                [
                    -2.980782,
                    2.98078198,
                    5.00705607
                ],
                [
                    2.980782,
                    -2.98078198,
                    5.00705607
                ],
                [
                    2.98078198,
                    2.980782,
                    -5.00705607
                ]
            ],
            "a": 6.5452832659817375,
            "b": 6.5452832659817375,
            "c": 6.5452832659817375,
            "alpha": 125.81747251012632,
            "beta": 125.81747251012632,
            "gamma": 80.1883436909706,
            "volume": 177.95199989532273
        },
        "sites": [
            {
                "species": [
                    {
                        "element": "Ca",
                        "occu": 1
                    }
                ],
                "abc": [
                    0.75,
                    0.25,
                    0.5
                ],
                "xyz": [
                    -1.0000000161269895e-08,
                    2.9807819900000005,
                    2.503528035
                ],
                "label": "Ca",
                "properties": {}
            },
            {
                "species": [
                    {
                        "element": "Ca",
                        "occu": 1
                    }
                ],
                "abc": [
                    0.0,
                    0.0,
                    0.0
                ],
                "xyz": [
                    0.0,
                    0.0,
                    0.0
                ],
                "label": "Ca",
                "properties": {}
            },
            {
                "species": [
                    {
                        "element": "Au",
                        "occu": 1
                    }
                ],
                "abc": [
                    0.375,
                    0.625,
                    0.75
                ],
                "xyz": [
                    2.980781985,
                    1.4903910050000002,
                    1.2517640175000002
                ],
                "label": "Au",
                "properties": {}
            },
            {
                "species": [
                    {
                        "element": "Au",
                        "occu": 1
                    }
                ],
                "abc": [
                    0.375,
                    0.125,
                    0.75
                ],
                "xyz": [
                    1.4903909850000001,
                    2.980781995,
                    -1.2517640174999998
                ],
                "label": "Au",
                "properties": {}
            },
            {
                "species": [
                    {
                        "element": "Au",
                        "occu": 1
                    }
                ],
                "abc": [
                    0.875,
                    0.625,
                    0.25
                ],
                "xyz": [
                    -4.999999858590343e-09,
                    1.4903909950000003,
                    6.2588200875
                ],
                "label": "Au",
                "properties": {}
            },
            {
                "species": [
                    {
                        "element": "Au",
                        "occu": 1
                    }
                ],
                "abc": [
                    0.375,
                    0.625,
                    0.25
                ],
                "xyz": [
                    1.4903909949999998,
                    5.000000080634948e-09,
                    3.7552920524999998
                ],
                "label": "Au",
                "properties": {}
            },
            {
                "species": [
                    {
                        "element": "O",
                        "occu": 1
                    }
                ],
                "abc": [
                    0.04477792,
                    0.40485866,
                    0.04942498
                ],
                "xyz": [
                    1.2206472780845405,
                    -0.9259970904027053,
                    2.0038819210644117
                ],
                "label": "O",
                "properties": {}
            },
            {
                "species": [
                    {
                        "element": "O",
                        "occu": 1
                    }
                ],
                "abc": [
                    0.74535193,
                    0.29477792,
                    0.13991926
                ],
                "xyz": [
                    -0.9259940898128853,
                    1.7601317013256597,
                    4.507404898937781
                ],
                "label": "O",
                "properties": {}
            },
            {
                "species": [
                    {
                        "element": "O",
                        "occu": 1
                    }
                ],
                "abc": [
                    0.15485866,
                    0.60543267,
                    0.86008074
                ],
                "xyz": [
                    3.906776069812885,
                    1.2206502986743404,
                    -0.4996511710622191
                ],
                "label": "O",
                "properties": {}
            },
            {
                "species": [
                    {
                        "element": "O",
                        "occu": 1
                    }
                ],
                "abc": [
                    0.35543267,
                    0.99535193,
                    0.95057502
                ],
                "xyz": [
                    4.740916701915459,
                    0.9259971104027054,
                    2.0038718068111505
                ],
                "label": "O",
                "properties": {}
            },
            {
                "species": [
                    {
                        "element": "O",
                        "occu": 1
                    }
                ],
                "abc": [
                    0.70522208,
                    0.84514134,
                    0.45057502
                ],
                "xyz": [
                    1.7601347119154596,
                    0.9259971004027052,
                    5.506702183935587
                ],
                "label": "O",
                "properties": {}
            },
            {
                "species": [
                    {
                        "element": "O",
                        "occu": 1
                    }
                ],
                "abc": [
                    0.00464807,
                    0.95522208,
                    0.36008074
                ],
                "xyz": [
                    3.906776079812885,
                    -1.7601316913256595,
                    3.003179206062219
                ],
                "label": "O",
                "properties": {}
            },
            {
                "species": [
                    {
                        "element": "O",
                        "occu": 1
                    }
                ],
                "abc": [
                    0.39456733,
                    0.25464807,
                    0.54942498
                ],
                "xyz": [
                    1.2206472680845404,
                    2.054784899597295,
                    0.49965622818884947
                ],
                "label": "O",
                "properties": {}
            },
            {
                "species": [
                    {
                        "element": "O",
                        "occu": 1
                    }
                ],
                "abc": [
                    0.59514134,
                    0.64456733,
                    0.63991926
                ],
                "xyz": [
                    2.054787900187115,
                    1.7601317113256596,
                    3.003179206062218
                ],
                "label": "O",
                "properties": {}
            }
        ]
    },
    "spacegroup": {
        "source": "spglib",
        "symbol": "I4_1/a",
        "number": 88,
        "point_group": "4/m",
        "crystal_system": "tetragonal",
        "hall": "I 4bw -1bw"
    },
    "dielectric": {
        "epsilon_ionic": [
            [
                4.03655088,
                -0.00025617,
                -0.0
            ],
            [
                -0.00025617,
                4.03632676,
                -0.0
            ],
            [
                -0.0,
                -0.0,
                4.62578931
            ]
        ],
        "epsilon_ionic_avg": 4.232888983333333,
        "epsilon_ionic_eig": [
            4.036718427783332,
            4.036159212216668,
            4.62578931
        ],
        "epsilon_electronic": [
            [
                5.71721525,
                6.2e-07,
                0.0
            ],
            [
                -6.2e-07,
                5.71721525,
                0.0
            ],
            [
                0.0,
                0.0,
                7.34283754
            ]
        ],
        "epsilon_electronic_avg": 6.259089346666666,
        "epsilon_electronic_eig": [
            5.71721525,
            5.71721525,
            7.34283754
        ]
    },
    "phonon": {
        "lowest_freq": -0.02431800533151427,
        "frequency": [
            -0.02431800533151427,
            -0.018563133873973355,
            -0.018563133873973355,
            3.15883632107793,
            3.628813337994403,
            3.628813337994403,
            3.654794865401778,
            4.052356888408782,
            4.2785410245903535,
            4.639731374420355,
            4.809989570756156,
            4.809989570756156,
            5.600077401137014,
            6.037389840832375,
            6.037389840832375,
            6.166891727026553,
            6.166891727026553,
            6.566620014034967,
            7.004982949521137,
            7.926546547150606,
            7.926546547150606,
            8.623714878886926,
            10.32745509791963,
            10.32745509791963,
            10.655391295702806,
            11.490709914473477,
            14.150044416619155,
            14.150044416619155,
            14.160926505294862,
            14.88732891794294,
            15.888243037181244,
            16.25245045927637,
            16.25245045927637,
            17.024550171074097,
            17.58425622583478,
            17.97635492722685,
            17.97635492722685,
            18.391016007681355,
            18.45984715556326,
            18.45984715556326,
            18.76821607516217,
            18.823104050434836
        ]
    },
    "born_effective_charge": {
        "avg_abs_trace": 1.8671533333333332,
        "tensors": [
            [
                [
                    2.76574,
                    0.07684,
                    0.00016
                ],
                [
                    -0.07703,
                    2.76565,
                    0.00017
                ],
                [
                    0.0,
                    -0.0,
                    2.41265
                ]
            ],
            [
                [
                    2.76574,
                    0.07684,
                    -0.00016
                ],
                [
                    -0.07703,
                    2.76565,
                    -0.00017
                ],
                [
                    0.0,
                    -0.0,
                    2.41265
                ]
            ],
            [
                [
                    2.67979,
                    -0.69121,
                    -0.28217
                ],
                [
                    -0.71857,
                    0.65603,
                    -0.5317
                ],
                [
                    0.52458,
                    -0.0873,
                    2.49479
                ]
            ],
            [
                [
                    0.65594,
                    0.71866,
                    0.53176
                ],
                [
                    0.69068,
                    2.67974,
                    -0.28209
                ],
                [
                    0.0873,
                    0.52458,
                    2.49479
                ]
            ],
            [
                [
                    2.67979,
                    -0.69121,
                    0.28217
                ],
                [
                    -0.71857,
                    0.65603,
                    0.5317
                ],
                [
                    -0.52458,
                    0.0873,
                    2.49479
                ]
            ],
            [
                [
                    0.65594,
                    0.71866,
                    -0.53176
                ],
                [
                    0.69068,
                    2.67974,
                    0.28209
                ],
                [
                    -0.0873,
                    -0.52458,
                    2.49479
                ]
            ],
            [
                [
                    -1.71953,
                    0.16287,
                    0.49304
                ],
                [
                    0.21517,
                    -1.33125,
                    -0.5857
                ],
                [
                    0.53455,
                    -0.47567,
                    -1.85055
                ]
            ],
            [
                [
                    -1.33123,
                    -0.21494,
                    -0.58592
                ],
                [
                    -0.16276,
                    -1.71955,
                    -0.49331
                ],
                [
                    -0.47567,
                    -0.53455,
                    -1.85055
                ]
            ],
            [
                [
                    -1.33118,
                    -0.21518,
                    0.58568
                ],
                [
                    -0.16267,
                    -1.71951,
                    0.49275
                ],
                [
                    0.47567,
                    0.53455,
                    -1.85055
                ]
            ],
            [
                [
                    -1.71952,
                    0.16296,
                    -0.49291
                ],
                [
                    0.21518,
                    -1.33111,
                    0.58582
                ],
                [
                    -0.53455,
                    0.47567,
                    -1.85055
                ]
            ],
            [
                [
                    -1.71952,
                    0.16296,
                    0.49291
                ],
                [
                    0.21518,
                    -1.33111,
                    -0.58582
                ],
                [
                    0.53447,
                    -0.47569,
                    -1.85056
                ]
            ],
            [
                [
                    -1.33118,
                    -0.21518,
                    -0.58568
                ],
                [
                    -0.16267,
                    -1.71951,
                    -0.49275
                ],
                [
                    -0.47569,
                    -0.53447,
                    -1.85056
                ]
            ],
            [
                [
                    -1.71953,
                    0.16287,
                    -0.49304
                ],
                [
                    0.21517,
                    -1.33125,
                    0.5857
                ],
                [
                    -0.53447,
                    0.47569,
                    -1.85056
                ]
            ],
            [
                [
                    -1.33123,
                    -0.21494,
                    0.58592
                ],
                [
                    -0.16276,
                    -1.71955,
                    0.49331
                ],
                [
                    0.47569,
                    0.53447,
                    -1.85056
                ]
            ]
        ]
    },
    "band_gap": 1.9795000000000007,
    "is_direct": false,
    "formula": "Ca(AuO2)2"
}