{
    "mp_id": "mp-20015",
    "nelements": 3,
    "nsites": 9,
    "elements": [
        "As",
        "O",
        "Pb"
    ],
    "structure": {
        "@module": "pymatgen.core.structure",
        "@class": "Structure",
        "charge": null,
        "lattice": {
            "matrix": [
                [
                    4.92305113,
                    0.0,
                    0.0
                ],
                [
                    -2.46152506,
                    4.26348688,
                    0.0
                ],
                [
                    0.0,
                    0.0,
                    5.44487116
                ]
            ],
            "a": 4.92305113,
            "b": 4.923050476781661,
            "c": 5.44487116,
            "alpha": 90.0,
            "beta": 90.0,
            "gamma": 119.99999760265666,
            "volume": 114.28438217850996
        },
        "sites": [
            {
                "species": [
                    {
                        "element": "As",
                        "occu": 1
                    }
                ],
                "abc": [
                    0.666667,
                    0.333333,
                    0.5
                ],
                "xyz": [
                    2.4615281948587304,
                    1.42116087217104,
                    2.72243558
                ],
                "label": "As",
                "properties": {}
            },
            {
                "species": [
                    {
                        "element": "As",
                        "occu": 1
                    }
                ],
                "abc": [
                    0.333333,
                    0.666667,
                    0.5
                ],
                "xyz": [
                    -2.124858730079282e-06,
                    2.84232600782896,
                    2.72243558
                ],
                "label": "As",
                "properties": {}
            },
            {
                "species": [
                    {
                        "element": "Pb",
                        "occu": 1
                    }
                ],
                "abc": [
                    0.0,
                    0.0,
                    0.0
                ],
                "xyz": [
                    0.0,
                    0.0,
                    0.0
                ],
                "label": "Pb",
                "properties": {}
            },
            {
                "species": [
                    {
                        "element": "O",
                        "occu": 1
                    }
                ],
                "abc": [
                    0.38404401,
                    0.38404401,
                    0.69279216
                ],
                "xyz": [
                    0.9453343426423407,
                    1.6373665979775889,
                    3.7721640518581054
                ],
                "label": "O",
                "properties": {}
            },
            {
                "species": [
                    {
                        "element": "O",
                        "occu": 1
                    }
                ],
                "abc": [
                    0.61595599,
                    0.0,
                    0.69279216
                ],
                "xyz": [
                    3.032382832599769,
                    0.0,
                    3.7721640518581054
                ],
                "label": "O",
                "properties": {}
            },
            {
                "species": [
                    {
                        "element": "O",
                        "occu": 1
                    }
                ],
                "abc": [
                    0.0,
                    0.61595599,
                    0.69279216
                ],
                "xyz": [
                    -1.5161911052421095,
                    2.6261202820224114,
                    3.7721640518581054
                ],
                "label": "O",
                "properties": {}
            },
            {
                "species": [
                    {
                        "element": "O",
                        "occu": 1
                    }
                ],
                "abc": [
                    0.38404401,
                    0.0,
                    0.30720784
                ],
                "xyz": [
                    1.8906682974002313,
                    0.0,
                    1.6727071081418945
                ],
                "label": "O",
                "properties": {}
            },
            {
                "species": [
                    {
                        "element": "O",
                        "occu": 1
                    }
                ],
                "abc": [
                    0.0,
                    0.38404401,
                    0.30720784
                ],
                "xyz": [
                    -0.9453339547578906,
                    1.6373665979775889,
                    1.6727071081418945
                ],
                "label": "O",
                "properties": {}
            },
            {
                "species": [
                    {
                        "element": "O",
                        "occu": 1
                    }
                ],
                "abc": [
                    0.61595599,
                    0.61595599,
                    0.30720784
                ],
                "xyz": [
                    1.5161917273576593,
                    2.6261202820224114,
                    1.6727071081418945
                ],
                "label": "O",
                "properties": {}
            }
        ]
    },
    "spacegroup": {
        "source": "spglib",
        "symbol": "P-31m",
        "number": 162,
        "point_group": "-3m",
        "crystal_system": "trigonal",
        "hall": "-P 3 2"
    },
    "dielectric": {
        "epsilon_ionic": [
            [
                9.94025231,
                0.0,
                -0.00034144
            ],
            [
                0.0,
                9.93999905,
                1.1e-07
            ],
            [
                -0.00034144,
                1.1e-07,
                16.9711101
            ]
        ],
        "epsilon_ionic_avg": 12.28378715333333,
        "epsilon_ionic_eig": [
            16.97111011658137,
            9.940252293418622,
            9.939999049999999
        ],
        "epsilon_electronic": [
            [
                4.54267186,
                5.3e-07,
                0.0
            ],
            [
                5.3e-07,
                4.54267137,
                -0.0
            ],
            [
                0.0,
                0.0,
                4.49629364
            ]
        ],
        "epsilon_electronic_avg": 4.5272122900000005,
        "epsilon_electronic_eig": [
            4.542672198887831,
            4.542671031112168,
            4.49629364
        ]
    },
    "phonon": {
        "lowest_freq": -0.01381624897000993,
        "frequency": [
            -0.01381624897000993,
            -0.013816247183387894,
            -0.011467838875612988,
            2.6545577243497394,
            2.6545580650017504,
            2.786671833952614,
            5.996999547874451,
            7.265096173229695,
            7.265096644194104,
            8.595929615291983,
            9.940787535827122,
            9.940788125881275,
            10.065035281224763,
            11.72149550997925,
            11.721496865267714,
            14.847350864345884,
            14.84735153924104,
            14.916757178712151,
            14.916758161768135,
            16.474750753301823,
            16.474750827475972,
            18.301324616461603,
            18.455874994589273,
            20.113338114194267,
            21.0596030781789,
            21.389576005488735,
            21.38957611975006
        ]
    },
    "born_effective_charge": {
        "avg_abs_trace": 2.7691466666666664,
        "tensors": [
            [
                [
                    4.9171,
                    3e-05,
                    0.0001
                ],
                [
                    0.0,
                    4.91695,
                    0.0
                ],
                [
                    0.0,
                    -0.0,
                    3.37688
                ]
            ],
            [
                [
                    4.9171,
                    -3e-05,
                    0.0001
                ],
                [
                    0.0,
                    4.9168,
                    0.0
                ],
                [
                    0.0,
                    -0.0,
                    3.37688
                ]
            ],
            [
                [
                    3.05023,
                    0.0,
                    -0.00012
                ],
                [
                    0.0,
                    3.05026,
                    0.0
                ],
                [
                    0.0,
                    -0.0,
                    4.86128
                ]
            ],
            [
                [
                    -2.26201,
                    0.19847,
                    0.40927
                ],
                [
                    0.19842,
                    -2.03259,
                    0.70866
                ],
                [
                    0.36046,
                    0.62434,
                    -1.93595
                ]
            ],
            [
                [
                    -1.91854,
                    0.0,
                    -0.8186
                ],
                [
                    -0.00031,
                    -2.37638,
                    -0.0
                ],
                [
                    -0.72093,
                    -0.0,
                    -1.93595
                ]
            ],
            [
                [
                    -2.26201,
                    -0.19847,
                    0.40927
                ],
                [
                    -0.19815,
                    -2.03303,
                    -0.70889
                ],
                [
                    0.36046,
                    -0.62434,
                    -1.93595
                ]
            ],
            [
                [
                    -1.91852,
                    0.0,
                    -0.81857
                ],
                [
                    0.00031,
                    -2.37638,
                    0.0
                ],
                [
                    -0.72018,
                    -0.0,
                    -1.93573
                ]
            ],
            [
                [
                    -2.26168,
                    -0.19829,
                    0.40927
                ],
                [
                    -0.19842,
                    -2.03259,
                    -0.70866
                ],
                [
                    0.36009,
                    -0.6237,
                    -1.93573
                ]
            ],
            [
                [
                    -2.26168,
                    0.19829,
                    0.40927
                ],
                [
                    0.19815,
                    -2.03303,
                    0.70889
                ],
                [
                    0.36009,
                    0.6237,
                    -1.93573
                ]
            ]
        ]
    },
    "band_gap": 2.1461000000000006,
    "is_direct": false,
    "formula": "As2PbO6"
}