{
    "mp_id": "mp-28796",
    "nelements": 3,
    "nsites": 15,
    "elements": [
        "Au",
        "O",
        "Sr"
    ],
    "structure": {
        "@module": "pymatgen.core.structure",
        "@class": "Structure",
        "charge": null,
        "lattice": {
            "matrix": [
                [
                    -4.13344307,
                    4.13344307,
                    3.2448987
                ],
                [
                    4.13344307,
                    -4.13344307,
                    3.2448987
                ],
                [
                    4.13344307,
                    4.13344307,
                    -3.2448987
                ]
            ],
            "a": 6.685811154910356,
            "b": 6.685811154910356,
            "c": 6.685811154910356,
            "alpha": 103.62439628887685,
            "beta": 103.62439628887685,
            "gamma": 121.93035917533494,
            "volume": 221.76094095137117
        },
        "sites": [
            {
                "species": [
                    {
                        "element": "Sr",
                        "occu": 1
                    }
                ],
                "abc": [
                    0.27752097,
                    0.27752097,
                    0.55504294
                ],
                "xyz": [
                    2.294238393895426,
                    2.294238393895426,
                    -3.2448987001831853e-06
                ],
                "label": "Sr",
                "properties": {}
            },
            {
                "species": [
                    {
                        "element": "Sr",
                        "occu": 1
                    }
                ],
                "abc": [
                    0.72247903,
                    0.72247903,
                    0.44495706
                ],
                "xyz": [
                    1.8392046761045744,
                    1.8392046761045744,
                    3.2449019448987
                ],
                "label": "Sr",
                "properties": {}
            },
            {
                "species": [
                    {
                        "element": "Sr",
                        "occu": 1
                    }
                ],
                "abc": [
                    0.27752097,
                    0.72247903,
                    0.0
                ],
                "xyz": [
                    1.8392088095476444,
                    -1.8392088095476444,
                    3.2448987
                ],
                "label": "Sr",
                "properties": {}
            },
            {
                "species": [
                    {
                        "element": "Sr",
                        "occu": 1
                    }
                ],
                "abc": [
                    0.72247903,
                    0.27752097,
                    0.0
                ],
                "xyz": [
                    -1.8392088095476444,
                    1.8392088095476444,
                    3.2448987
                ],
                "label": "Sr",
                "properties": {}
            },
            {
                "species": [
                    {
                        "element": "Sr",
                        "occu": 1
                    }
                ],
                "abc": [
                    0.0,
                    0.0,
                    0.0
                ],
                "xyz": [
                    0.0,
                    0.0,
                    0.0
                ],
                "label": "Sr",
                "properties": {}
            },
            {
                "species": [
                    {
                        "element": "Au",
                        "occu": 1
                    }
                ],
                "abc": [
                    0.75,
                    0.25,
                    0.5
                ],
                "xyz": [
                    0.0,
                    4.13344307,
                    1.62244935
                ],
                "label": "Au",
                "properties": {}
            },
            {
                "species": [
                    {
                        "element": "Au",
                        "occu": 1
                    }
                ],
                "abc": [
                    0.25,
                    0.75,
                    0.5
                ],
                "xyz": [
                    4.13344307,
                    0.0,
                    1.62244935
                ],
                "label": "Au",
                "properties": {}
            },
            {
                "species": [
                    {
                        "element": "O",
                        "occu": 1
                    }
                ],
                "abc": [
                    0.76160319,
                    0.50514023,
                    0.74353705
                ],
                "xyz": [
                    2.0132930218870566,
                    4.133443111334431,
                    1.6977516698447186
                ],
                "label": "O",
                "properties": {}
            },
            {
                "species": [
                    {
                        "element": "O",
                        "occu": 1
                    }
                ],
                "abc": [
                    0.76160319,
                    0.01806714,
                    0.25646295
                ],
                "xyz": [
                    -2.0132889297784167,
                    4.13343893655693,
                    1.6977549471924056
                ],
                "label": "O",
                "properties": {}
            },
            {
                "species": [
                    {
                        "element": "O",
                        "occu": 1
                    }
                ],
                "abc": [
                    0.49485977,
                    0.23839681,
                    0.25646295
                ],
                "xyz": [
                    -4.1334430322947924e-08,
                    2.1201500481129436,
                    1.5471470301552808
                ],
                "label": "O",
                "properties": {}
            },
            {
                "species": [
                    {
                        "element": "O",
                        "occu": 1
                    }
                ],
                "abc": [
                    0.98193286,
                    0.23839681,
                    0.74353705
                ],
                "xyz": [
                    4.133443070486464e-06,
                    6.146731999778417,
                    1.5471437528075942
                ],
                "label": "O",
                "properties": {}
            },
            {
                "species": [
                    {
                        "element": "O",
                        "occu": 1
                    }
                ],
                "abc": [
                    0.50514023,
                    0.76160319,
                    0.74353705
                ],
                "xyz": [
                    4.133443111334431,
                    2.0132930218870566,
                    1.6977516698447186
                ],
                "label": "O",
                "properties": {}
            },
            {
                "species": [
                    {
                        "element": "O",
                        "occu": 1
                    }
                ],
                "abc": [
                    0.01806714,
                    0.76160319,
                    0.25646295
                ],
                "xyz": [
                    4.13343893655693,
                    -2.0132889297784167,
                    1.6977549471924056
                ],
                "label": "O",
                "properties": {}
            },
            {
                "species": [
                    {
                        "element": "O",
                        "occu": 1
                    }
                ],
                "abc": [
                    0.23839681,
                    0.49485977,
                    0.25646295
                ],
                "xyz": [
                    2.1201500481129436,
                    -4.1334430322947924e-08,
                    1.5471470301552808
                ],
                "label": "O",
                "properties": {}
            },
            {
                "species": [
                    {
                        "element": "O",
                        "occu": 1
                    }
                ],
                "abc": [
                    0.23839681,
                    0.98193286,
                    0.74353705
                ],
                "xyz": [
                    6.146731999778417,
                    4.133443070486464e-06,
                    1.5471437528075942
                ],
                "label": "O",
                "properties": {}
            }
        ]
    },
    "spacegroup": {
        "source": "spglib",
        "symbol": "I4/mmm",
        "number": 139,
        "point_group": "4/mmm",
        "crystal_system": "tetragonal",
        "hall": "-I 4 2"
    },
    "dielectric": {
        "epsilon_ionic": [
            [
                9.55317585,
                1e-08,
                -0.0
            ],
            [
                1e-08,
                9.55314524,
                -0.0
            ],
            [
                -0.0,
                -0.0,
                8.99594341
            ]
        ],
        "epsilon_ionic_avg": 9.3674215,
        "epsilon_ionic_eig": [
            9.553175850003267,
            9.553145239996732,
            8.99594341
        ],
        "epsilon_electronic": [
            [
                4.81076407,
                0.0,
                -0.0
            ],
            [
                0.0,
                4.81076407,
                -0.0
            ],
            [
                0.0,
                -0.0,
                4.09582883
            ]
        ],
        "epsilon_electronic_avg": 4.572452323333334,
        "epsilon_electronic_eig": [
            4.81076407,
            4.81076407,
            4.09582883
        ]
    },
    "phonon": {
        "lowest_freq": -0.012976351334214212,
        "frequency": [
            -0.012976351334214212,
            -0.012976351334214212,
            -0.003642675795336505,
            2.305383690149199,
            2.3360879167703565,
            2.6838305552357475,
            2.83847994008359,
            2.896518437704714,
            2.896518437704714,
            3.172607147531205,
            3.469159913724514,
            3.469159913724514,
            3.527689787508254,
            4.504677693944576,
            4.571207710014723,
            4.6025640386659985,
            4.6025640386659985,
            5.245532840750103,
            5.245532840750103,
            5.4681851229567835,
            5.4681851229567835,
            7.079306721564232,
            7.08280531576494,
            7.08280531576494,
            7.611268079046231,
            8.516353954105284,
            8.577458816787171,
            9.803913754435118,
            9.803913754435118,
            10.043784919705978,
            10.076105979841724,
            10.076105979841724,
            10.474300801683437,
            10.474300801683437,
            10.526485375350237,
            10.755621293339518,
            13.142426003196324,
            15.428684712309058,
            15.665706657683716,
            15.665706657683716,
            15.935884437326575,
            15.935884437326575,
            16.288247025804036,
            16.313122989964686,
            17.715155655328573
        ]
    },
    "born_effective_charge": {
        "avg_abs_trace": 2.1204446666666668,
        "tensors": [
            [
                [
                    2.42411,
                    -0.96156,
                    0.0
                ],
                [
                    -0.96174,
                    2.42422,
                    -0.0
                ],
                [
                    -2e-05,
                    -2e-05,
                    2.75721
                ]
            ],
            [
                [
                    2.42429,
                    -0.96195,
                    0.0
                ],
                [
                    -0.96176,
                    2.42416,
                    0.0
                ],
                [
                    2e-05,
                    2e-05,
                    2.75721
                ]
            ],
            [
                [
                    2.42429,
                    0.96195,
                    -0.0
                ],
                [
                    0.96174,
                    2.42422,
                    -0.0
                ],
                [
                    2e-05,
                    -2e-05,
                    2.75721
                ]
            ],
            [
                [
                    2.42411,
                    0.96156,
                    -0.0
                ],
                [
                    0.96176,
                    2.42416,
                    0.0
                ],
                [
                    -2e-05,
                    2e-05,
                    2.75721
                ]
            ],
            [
                [
                    3.44829,
                    0.0,
                    -0.0
                ],
                [
                    -0.0,
                    3.44829,
                    -0.0
                ],
                [
                    -0.0,
                    0.0,
                    2.49059
                ]
            ],
            [
                [
                    2.00624,
                    0.0,
                    -1e-05
                ],
                [
                    -0.0,
                    2.00625,
                    4e-05
                ],
                [
                    -0.0,
                    0.0,
                    -0.06228
                ]
            ],
            [
                [
                    2.00624,
                    0.0,
                    1e-05
                ],
                [
                    -0.0,
                    2.00625,
                    -4e-05
                ],
                [
                    -0.0,
                    0.0,
                    -0.06228
                ]
            ],
            [
                [
                    -2.64426,
                    -0.0,
                    -0.17322
                ],
                [
                    4e-05,
                    -1.64513,
                    -3e-05
                ],
                [
                    -0.09916,
                    0.0,
                    -1.67436
                ]
            ],
            [
                [
                    -2.64428,
                    0.0,
                    0.17317
                ],
                [
                    -4e-05,
                    -1.64513,
                    -3e-05
                ],
                [
                    0.09916,
                    0.0,
                    -1.67436
                ]
            ],
            [
                [
                    -1.64513,
                    5e-05,
                    7e-05
                ],
                [
                    -0.0,
                    -2.64418,
                    -0.17317
                ],
                [
                    -0.0,
                    -0.09918,
                    -1.67435
                ]
            ],
            [
                [
                    -1.64513,
                    -5e-05,
                    7e-05
                ],
                [
                    -0.0,
                    -2.64435,
                    0.17322
                ],
                [
                    -0.0,
                    0.09918,
                    -1.67435
                ]
            ],
            [
                [
                    -1.64513,
                    -5e-05,
                    -7e-05
                ],
                [
                    0.0,
                    -2.64435,
                    -0.17322
                ],
                [
                    -0.0,
                    -0.09916,
                    -1.67436
                ]
            ],
            [
                [
                    -1.64513,
                    5e-05,
                    -7e-05
                ],
                [
                    0.0,
                    -2.64418,
                    0.17317
                ],
                [
                    -0.0,
                    0.09916,
                    -1.67436
                ]
            ],
            [
                [
                    -2.64428,
                    0.0,
                    -0.17317
                ],
                [
                    -4e-05,
                    -1.64513,
                    3e-05
                ],
                [
                    -0.09918,
                    0.0,
                    -1.67435
                ]
            ],
            [
                [
                    -2.64426,
                    0.0,
                    0.17322
                ],
                [
                    4e-05,
                    -1.64513,
                    3e-05
                ],
                [
                    0.09918,
                    0.0,
                    -1.67435
                ]
            ]
        ]
    },
    "band_gap": 1.5372,
    "is_direct": true,
    "formula": "Sr5(AuO4)2"
}