{
    "mp_id": "mp-27150",
    "nelements": 3,
    "nsites": 22,
    "elements": [
        "Mg",
        "O",
        "V"
    ],
    "structure": {
        "@module": "pymatgen.core.structure",
        "@class": "Structure",
        "charge": null,
        "lattice": {
            "matrix": [
                [
                    4.97753315,
                    5.826e-05,
                    0.00035539
                ],
                [
                    -0.84393992,
                    5.33642586,
                    -0.00030044
                ],
                [
                    -2.12360133,
                    -2.39079649,
                    9.95911827
                ]
            ],
            "a": 4.977533163028168,
            "b": 5.4027470455417905,
            "c": 10.459905696574031,
            "alpha": 101.19224137067326,
            "beta": 101.7099698910518,
            "gamma": 98.98605955631005,
            "volume": 264.5381149132717
        },
        "sites": [
            {
                "species": [
                    {
                        "element": "Mg",
                        "occu": 1
                    }
                ],
                "abc": [
                    0.52092535,
                    0.79055673,
                    0.08652872
                ],
                "xyz": [
                    1.7419883099534934,
                    4.011905166819736,
                    0.8616973730278896
                ],
                "label": "Mg",
                "properties": {}
            },
            {
                "species": [
                    {
                        "element": "Mg",
                        "occu": 1
                    }
                ],
                "abc": [
                    0.47907465,
                    0.20944327,
                    0.91347128
                ],
                "xyz": [
                    0.26800359004650676,
                    -1.0662175368197362,
                    9.09747584697211
                ],
                "label": "Mg",
                "properties": {}
            },
            {
                "species": [
                    {
                        "element": "Mg",
                        "occu": 1
                    }
                ],
                "abc": [
                    0.42554525,
                    0.21316757,
                    0.41812422
                ],
                "xyz": [
                    1.0503358170304304,
                    0.13792780776763758,
                    4.164235748993166
                ],
                "label": "Mg",
                "properties": {}
            },
            {
                "species": [
                    {
                        "element": "Mg",
                        "occu": 1
                    }
                ],
                "abc": [
                    0.57445475,
                    0.78683243,
                    0.58187578
                ],
                "xyz": [
                    0.95965608296957,
                    2.807759822232363,
                    5.7949374710068335
                ],
                "label": "Mg",
                "properties": {}
            },
            {
                "species": [
                    {
                        "element": "V",
                        "occu": 1
                    }
                ],
                "abc": [
                    0.03271821,
                    0.36089717,
                    0.6454715
                ],
                "xyz": [
                    -1.5124436897714597,
                    0.3827119003566959,
                    6.4282302081932015
                ],
                "label": "V",
                "properties": {}
            },
            {
                "species": [
                    {
                        "element": "V",
                        "occu": 1
                    }
                ],
                "abc": [
                    0.96728179,
                    0.63910283,
                    0.3545285
                ],
                "xyz": [
                    3.52243558977146,
                    2.5629757296433042,
                    3.530943011806798
                ],
                "label": "V",
                "properties": {}
            },
            {
                "species": [
                    {
                        "element": "V",
                        "occu": 1
                    }
                ],
                "abc": [
                    0.84462168,
                    0.81100645,
                    0.8693847
                ],
                "xyz": [
                    1.6734651876745572,
                    2.249403110846172,
                    8.658361560749485
                ],
                "label": "V",
                "properties": {}
            },
            {
                "species": [
                    {
                        "element": "V",
                        "occu": 1
                    }
                ],
                "abc": [
                    0.15537832,
                    0.18899355,
                    0.1306153
                ],
                "xyz": [
                    0.33652671232544296,
                    0.6962845191538294,
                    1.3008116592505137
                ],
                "label": "V",
                "properties": {}
            },
            {
                "species": [
                    {
                        "element": "O",
                        "occu": 1
                    }
                ],
                "abc": [
                    0.29406634,
                    0.44289743,
                    0.56584533
                ],
                "xyz": [
                    -0.11168376135552371,
                    1.0106854022376164,
                    5.635292008129882
                ],
                "label": "O",
                "properties": {}
            },
            {
                "species": [
                    {
                        "element": "O",
                        "occu": 1
                    }
                ],
                "abc": [
                    0.70593366,
                    0.55710257,
                    0.43415467
                ],
                "xyz": [
                    2.1216756613555234,
                    1.935002227762383,
                    4.323881211870117
                ],
                "label": "O",
                "properties": {}
            },
            {
                "species": [
                    {
                        "element": "O",
                        "occu": 1
                    }
                ],
                "abc": [
                    0.60156008,
                    0.95289154,
                    0.78046139
                ],
                "xyz": [
                    0.532713184062727,
                    3.2191457509289645,
                    7.772634789881149
                ],
                "label": "O",
                "properties": {}
            },
            {
                "species": [
                    {
                        "element": "O",
                        "occu": 1
                    }
                ],
                "abc": [
                    0.39843992,
                    0.04710846,
                    0.21953861
                ],
                "xyz": [
                    1.4772787159372736,
                    -0.2734581209289641,
                    2.186538430118851
                ],
                "label": "O",
                "properties": {}
            },
            {
                "species": [
                    {
                        "element": "O",
                        "occu": 1
                    }
                ],
                "abc": [
                    0.75969302,
                    0.12454549,
                    0.54381147
                ],
                "xyz": [
                    2.5214495190453974,
                    -0.6354705204000236,
                    5.416115315167919
                ],
                "label": "O",
                "properties": {}
            },
            {
                "species": [
                    {
                        "element": "O",
                        "occu": 1
                    }
                ],
                "abc": [
                    0.24030698,
                    0.87545451,
                    0.45618853
                ],
                "xyz": [
                    -0.5114576190453969,
                    3.5811581504000243,
                    4.5430579048320805
                ],
                "label": "O",
                "properties": {}
            },
            {
                "species": [
                    {
                        "element": "O",
                        "occu": 1
                    }
                ],
                "abc": [
                    0.31769031,
                    0.4265411,
                    0.07230433
                ],
                "xyz": [
                    1.0677934162953056,
                    2.103358526654505,
                    0.720072127854296
                ],
                "label": "O",
                "properties": {}
            },
            {
                "species": [
                    {
                        "element": "O",
                        "occu": 1
                    }
                ],
                "abc": [
                    0.68230969,
                    0.5734589,
                    0.92769567
                ],
                "xyz": [
                    0.9421984837046946,
                    0.8423291033454952,
                    9.239101092145704
                ],
                "label": "O",
                "properties": {}
            },
            {
                "species": [
                    {
                        "element": "O",
                        "occu": 1
                    }
                ],
                "abc": [
                    0.90743758,
                    0.64680807,
                    0.71239105
                ],
                "xyz": [
                    2.458098903894526,
                    1.7485141566706863,
                    7.094914888664489
                ],
                "label": "O",
                "properties": {}
            },
            {
                "species": [
                    {
                        "element": "O",
                        "occu": 1
                    }
                ],
                "abc": [
                    0.09256242,
                    0.35319193,
                    0.28760895
                ],
                "xyz": [
                    -0.44810700389452596,
                    1.1971734733293138,
                    2.8642583313355106
                ],
                "label": "O",
                "properties": {}
            },
            {
                "species": [
                    {
                        "element": "O",
                        "occu": 1
                    }
                ],
                "abc": [
                    0.20817008,
                    0.9266974,
                    0.96695461
                ],
                "xyz": [
                    -1.7993295514276872,
                    2.6334724101663065,
                    9.629810887309599
                ],
                "label": "O",
                "properties": {}
            },
            {
                "species": [
                    {
                        "element": "O",
                        "occu": 1
                    }
                ],
                "abc": [
                    0.79182992,
                    0.0733026,
                    0.03304539
                ],
                "xyz": [
                    3.8093214514276874,
                    0.3122152198336941,
                    0.32936233269040005
                ],
                "label": "O",
                "properties": {}
            },
            {
                "species": [
                    {
                        "element": "O",
                        "occu": 1
                    }
                ],
                "abc": [
                    0.15863459,
                    0.2464424,
                    0.77625306
                ],
                "xyz": [
                    -1.0668256795115196,
                    -0.540732252788082,
                    7.73077836798169
                ],
                "label": "O",
                "properties": {}
            },
            {
                "species": [
                    {
                        "element": "O",
                        "occu": 1
                    }
                ],
                "abc": [
                    0.84136541,
                    0.7535576,
                    0.22374694
                ],
                "xyz": [
                    3.07681757951152,
                    3.4864198827880823,
                    2.22839485201831
                ],
                "label": "O",
                "properties": {}
            }
        ]
    },
    "spacegroup": {
        "source": "spglib",
        "symbol": "P-1",
        "number": 2,
        "point_group": "-1",
        "crystal_system": "triclinic",
        "hall": "-P 1"
    },
    "dielectric": {
        "epsilon_ionic": [
            [
                6.05649236,
                0.0844889,
                -1.65667761
            ],
            [
                0.0844889,
                4.77949584,
                1.30883443
            ],
            [
                -1.65667761,
                1.30883443,
                11.17264091
            ]
        ],
        "epsilon_ionic_avg": 7.336209703333334,
        "epsilon_ionic_eig": [
            11.87681013847536,
            5.73546959492387,
            4.396349376600773
        ],
        "epsilon_electronic": [
            [
                3.93853112,
                -0.00572819,
                -0.16306963
            ],
            [
                -0.00572525,
                3.98189004,
                0.2231133
            ],
            [
                -0.1630722,
                0.22311409,
                4.59565505
            ]
        ],
        "epsilon_electronic_avg": 4.1720254033333335,
        "epsilon_electronic_eig": [
            4.700582009216709,
            3.8636774685194677,
            3.9518167322638247
        ]
    },
    "phonon": {
        "lowest_freq": -0.18346221292840442,
        "frequency": [
            -0.18346221292840442,
            -0.09410614646955134,
            -0.061451818319667756,
            2.358273248384014,
            2.7649912670641426,
            3.346243487852701,
            3.3494476680750433,
            3.5676934583344297,
            3.990059187262078,
            4.272477851133104,
            4.814715969529749,
            5.183406217399862,
            5.276966450836134,
            6.04784276572368,
            6.151469693944061,
            6.3139707075959075,
            6.436596896121513,
            6.5372892586794995,
            7.117601802316382,
            7.175711877812173,
            7.37328275586115,
            7.61090177193936,
            7.780869520284235,
            8.397540357828973,
            8.543692855996593,
            8.603473358244573,
            8.79318983404727,
            9.278600629597063,
            9.281461220891298,
            9.575962516053172,
            9.655550982057967,
            9.794739540208083,
            10.118089507615009,
            10.188252191315721,
            10.31386164593379,
            10.33014549162944,
            10.51997099778018,
            11.208741358456397,
            11.381309275449997,
            11.465025673129935,
            11.493123021772774,
            11.85889004228623,
            11.883220825418812,
            11.927821742495231,
            12.964256694259483,
            13.07834380258977,
            13.330301263871275,
            13.728549932018048,
            14.428321312043277,
            14.571405662627592,
            15.623137181986085,
            16.016273341356918,
            19.046604431363946,
            20.89248663142864,
            21.39239030532408,
            22.27442519057786,
            23.390529734519944,
            24.11996040537991,
            24.816441520833816,
            25.01425176201475,
            25.157917072314888,
            25.874032435493614,
            26.028521786854675,
            27.155170586127202,
            28.30281598284148,
            29.718470871284133
        ]
    },
    "born_effective_charge": {
        "avg_abs_trace": 2.4383401515151513,
        "tensors": [
            [
                [
                    2.95797,
                    -0.00251,
                    -0.22932
                ],
                [
                    -0.04571,
                    2.47922,
                    -0.26693
                ],
                [
                    0.29826,
                    -0.30921,
                    2.01331
                ]
            ],
            [
                [
                    2.95798,
                    -0.00252,
                    -0.22931
                ],
                [
                    -0.04571,
                    2.47922,
                    -0.26694
                ],
                [
                    0.29826,
                    -0.30919,
                    2.01331
                ]
            ],
            [
                [
                    2.50402,
                    0.34798,
                    0.29133
                ],
                [
                    0.48752,
                    2.18612,
                    -0.27197
                ],
                [
                    0.17784,
                    -0.01927,
                    2.72427
                ]
            ],
            [
                [
                    2.50402,
                    0.34798,
                    0.29132
                ],
                [
                    0.48752,
                    2.18613,
                    -0.27196
                ],
                [
                    0.17784,
                    -0.01929,
                    2.72424
                ]
            ],
            [
                [
                    3.54456,
                    -0.17922,
                    -0.20838
                ],
                [
                    -0.20705,
                    3.86636,
                    0.04128
                ],
                [
                    -0.8172,
                    0.60638,
                    4.44469
                ]
            ],
            [
                [
                    3.54452,
                    -0.17939,
                    -0.2083
                ],
                [
                    -0.20696,
                    3.86643,
                    0.04168
                ],
                [
                    -0.81733,
                    0.60649,
                    4.44467
                ]
            ],
            [
                [
                    3.57633,
                    -0.13073,
                    -0.57068
                ],
                [
                    -0.2368,
                    3.90872,
                    1.27817
                ],
                [
                    -0.25439,
                    0.34544,
                    6.02685
                ]
            ],
            [
                [
                    3.57635,
                    -0.13092,
                    -0.57051
                ],
                [
                    -0.23677,
                    3.90901,
                    1.27804
                ],
                [
                    -0.25426,
                    0.34527,
                    6.02693
                ]
            ],
            [
                [
                    -2.59624,
                    -0.81277,
                    0.9502
                ],
                [
                    -0.67991,
                    -1.3313,
                    0.3923
                ],
                [
                    1.23322,
                    0.59157,
                    -2.00758
                ]
            ],
            [
                [
                    -2.59662,
                    -0.81296,
                    0.9502
                ],
                [
                    -0.67963,
                    -1.33128,
                    0.39209
                ],
                [
                    1.23303,
                    0.59151,
                    -2.00763
                ]
            ],
            [
                [
                    -1.80857,
                    0.84672,
                    -0.59172
                ],
                [
                    0.91378,
                    -1.6752,
                    0.3076
                ],
                [
                    -0.44492,
                    0.46251,
                    -1.85572
                ]
            ],
            [
                [
                    -1.80848,
                    0.84678,
                    -0.59157
                ],
                [
                    0.9141,
                    -1.67558,
                    0.30781
                ],
                [
                    -0.44487,
                    0.46258,
                    -1.85568
                ]
            ],
            [
                [
                    -1.66469,
                    -0.65724,
                    -0.79622
                ],
                [
                    -0.87548,
                    -1.92916,
                    -0.69439
                ],
                [
                    -1.06856,
                    -0.81254,
                    -1.95964
                ]
            ],
            [
                [
                    -1.66461,
                    -0.65708,
                    -0.79633
                ],
                [
                    -0.87569,
                    -1.9294,
                    -0.69451
                ],
                [
                    -1.06831,
                    -0.81234,
                    -1.95941
                ]
            ],
            [
                [
                    -1.32879,
                    -0.97901,
                    0.58357
                ],
                [
                    -0.9025,
                    -2.5061,
                    0.61527
                ],
                [
                    0.58285,
                    0.48322,
                    -1.27879
                ]
            ],
            [
                [
                    -1.32881,
                    -0.97907,
                    0.58364
                ],
                [
                    -0.90253,
                    -2.50596,
                    0.6152
                ],
                [
                    0.58284,
                    0.48309,
                    -1.27898
                ]
            ],
            [
                [
                    -1.86233,
                    1.31942,
                    1.50527
                ],
                [
                    1.47886,
                    -2.1313,
                    -1.61748
                ],
                [
                    1.66352,
                    -1.6067,
                    -3.37809
                ]
            ],
            [
                [
                    -1.86233,
                    1.31947,
                    1.50526
                ],
                [
                    1.47876,
                    -2.13129,
                    -1.61733
                ],
                [
                    1.66352,
                    -1.60683,
                    -3.37818
                ]
            ],
            [
                [
                    -2.31935,
                    -0.14466,
                    -0.3626
                ],
                [
                    -0.3276,
                    -1.33383,
                    -0.87474
                ],
                [
                    -0.80901,
                    -0.75651,
                    -2.55483
                ]
            ],
            [
                [
                    -2.31927,
                    -0.14487,
                    -0.36265
                ],
                [
                    -0.32762,
                    -1.33378,
                    -0.87465
                ],
                [
                    -0.80884,
                    -0.75662,
                    -2.55496
                ]
            ],
            [
                [
                    -1.00283,
                    0.39238,
                    -0.57159
                ],
                [
                    0.39464,
                    -1.53363,
                    1.09078
                ],
                [
                    -0.56166,
                    1.01537,
                    -2.17453
                ]
            ],
            [
                [
                    -1.00283,
                    0.39221,
                    -0.57161
                ],
                [
                    0.3948,
                    -1.53338,
                    1.0907
                ],
                [
                    -0.56181,
                    1.01508,
                    -2.17426
                ]
            ]
        ]
    },
    "band_gap": 2.7202,
    "is_direct": false,
    "formula": "Mg2V2O7"
}