{
    "mp_id": "mp-27219",
    "nelements": 3,
    "nsites": 28,
    "elements": [
        "Mg",
        "O",
        "Sb"
    ],
    "structure": {
        "@module": "pymatgen.core.structure",
        "@class": "Structure",
        "charge": null,
        "lattice": {
            "matrix": [
                [
                    8.41427734,
                    0.0,
                    0.0
                ],
                [
                    0.0,
                    8.41427734,
                    0.0
                ],
                [
                    0.0,
                    0.0,
                    5.98993899
                ]
            ],
            "a": 8.41427734,
            "b": 8.41427734,
            "c": 5.98993899,
            "alpha": 90.0,
            "beta": 90.0,
            "gamma": 90.0,
            "volume": 424.08805878322744
        },
        "sites": [
            {
                "species": [
                    {
                        "element": "Mg",
                        "occu": 1
                    }
                ],
                "abc": [
                    0.0,
                    0.5,
                    0.25
                ],
                "xyz": [
                    0.0,
                    4.20713867,
                    1.4974847475
                ],
                "label": "Mg",
                "properties": {}
            },
            {
                "species": [
                    {
                        "element": "Mg",
                        "occu": 1
                    }
                ],
                "abc": [
                    0.5,
                    0.0,
                    0.75
                ],
                "xyz": [
                    4.20713867,
                    0.0,
                    4.4924542425
                ],
                "label": "Mg",
                "properties": {}
            },
            {
                "species": [
                    {
                        "element": "Mg",
                        "occu": 1
                    }
                ],
                "abc": [
                    0.0,
                    0.5,
                    0.75
                ],
                "xyz": [
                    0.0,
                    4.20713867,
                    4.4924542425
                ],
                "label": "Mg",
                "properties": {}
            },
            {
                "species": [
                    {
                        "element": "Mg",
                        "occu": 1
                    }
                ],
                "abc": [
                    0.5,
                    0.0,
                    0.25
                ],
                "xyz": [
                    4.20713867,
                    0.0,
                    1.4974847475
                ],
                "label": "Mg",
                "properties": {}
            },
            {
                "species": [
                    {
                        "element": "Sb",
                        "occu": 1
                    }
                ],
                "abc": [
                    0.32739665,
                    0.33539497,
                    0.0
                ],
                "xyz": [
                    2.754806213286911,
                    2.82210629602098,
                    0.0
                ],
                "label": "Sb",
                "properties": {}
            },
            {
                "species": [
                    {
                        "element": "Sb",
                        "occu": 1
                    }
                ],
                "abc": [
                    0.66460503,
                    0.32739665,
                    0.5
                ],
                "xyz": [
                    5.592171043979021,
                    2.754806213286911,
                    2.994969495
                ],
                "label": "Sb",
                "properties": {}
            },
            {
                "species": [
                    {
                        "element": "Sb",
                        "occu": 1
                    }
                ],
                "abc": [
                    0.33539497,
                    0.67260335,
                    0.5
                ],
                "xyz": [
                    2.82210629602098,
                    5.65947112671309,
                    2.994969495
                ],
                "label": "Sb",
                "properties": {}
            },
            {
                "species": [
                    {
                        "element": "Sb",
                        "occu": 1
                    }
                ],
                "abc": [
                    0.82739665,
                    0.16460503,
                    0.0
                ],
                "xyz": [
                    6.96194488328691,
                    1.3850323739790202,
                    0.0
                ],
                "label": "Sb",
                "properties": {}
            },
            {
                "species": [
                    {
                        "element": "Sb",
                        "occu": 1
                    }
                ],
                "abc": [
                    0.17260335,
                    0.83539497,
                    0.0
                ],
                "xyz": [
                    1.4523324567130889,
                    7.029244966020979,
                    0.0
                ],
                "label": "Sb",
                "properties": {}
            },
            {
                "species": [
                    {
                        "element": "Sb",
                        "occu": 1
                    }
                ],
                "abc": [
                    0.67260335,
                    0.66460503,
                    0.0
                ],
                "xyz": [
                    5.65947112671309,
                    5.592171043979021,
                    0.0
                ],
                "label": "Sb",
                "properties": {}
            },
            {
                "species": [
                    {
                        "element": "Sb",
                        "occu": 1
                    }
                ],
                "abc": [
                    0.83539497,
                    0.82739665,
                    0.5
                ],
                "xyz": [
                    7.029244966020979,
                    6.96194488328691,
                    2.994969495
                ],
                "label": "Sb",
                "properties": {}
            },
            {
                "species": [
                    {
                        "element": "Sb",
                        "occu": 1
                    }
                ],
                "abc": [
                    0.16460503,
                    0.17260335,
                    0.5
                ],
                "xyz": [
                    1.3850323739790202,
                    1.4523324567130889,
                    2.994969495
                ],
                "label": "Sb",
                "properties": {}
            },
            {
                "species": [
                    {
                        "element": "O",
                        "occu": 1
                    }
                ],
                "abc": [
                    0.09641293,
                    0.36068139,
                    0.0
                ],
                "xyz": [
                    0.8112451321820061,
                    3.0348732468367023,
                    0.0
                ],
                "label": "O",
                "properties": {}
            },
            {
                "species": [
                    {
                        "element": "O",
                        "occu": 1
                    }
                ],
                "abc": [
                    0.63931861,
                    0.09641293,
                    0.5
                ],
                "xyz": [
                    5.379404093163298,
                    0.8112451321820061,
                    2.994969495
                ],
                "label": "O",
                "properties": {}
            },
            {
                "species": [
                    {
                        "element": "O",
                        "occu": 1
                    }
                ],
                "abc": [
                    0.36068139,
                    0.90358707,
                    0.5
                ],
                "xyz": [
                    3.0348732468367023,
                    7.603032207817994,
                    2.994969495
                ],
                "label": "O",
                "properties": {}
            },
            {
                "species": [
                    {
                        "element": "O",
                        "occu": 1
                    }
                ],
                "abc": [
                    0.59641293,
                    0.13931861,
                    0.0
                ],
                "xyz": [
                    5.018383802182006,
                    1.1722654231632974,
                    0.0
                ],
                "label": "O",
                "properties": {}
            },
            {
                "species": [
                    {
                        "element": "O",
                        "occu": 1
                    }
                ],
                "abc": [
                    0.40358707,
                    0.86068139,
                    0.0
                ],
                "xyz": [
                    3.3958935378179937,
                    7.242011916836702,
                    0.0
                ],
                "label": "O",
                "properties": {}
            },
            {
                "species": [
                    {
                        "element": "O",
                        "occu": 1
                    }
                ],
                "abc": [
                    0.90358707,
                    0.63931861,
                    0.0
                ],
                "xyz": [
                    7.603032207817994,
                    5.379404093163298,
                    0.0
                ],
                "label": "O",
                "properties": {}
            },
            {
                "species": [
                    {
                        "element": "O",
                        "occu": 1
                    }
                ],
                "abc": [
                    0.86068139,
                    0.59641293,
                    0.5
                ],
                "xyz": [
                    7.242011916836702,
                    5.018383802182006,
                    2.994969495
                ],
                "label": "O",
                "properties": {}
            },
            {
                "species": [
                    {
                        "element": "O",
                        "occu": 1
                    }
                ],
                "abc": [
                    0.13931861,
                    0.40358707,
                    0.5
                ],
                "xyz": [
                    1.1722654231632974,
                    3.3958935378179937,
                    2.994969495
                ],
                "label": "O",
                "properties": {}
            },
            {
                "species": [
                    {
                        "element": "O",
                        "occu": 1
                    }
                ],
                "abc": [
                    0.17565241,
                    0.67565241,
                    0.25
                ],
                "xyz": [
                    1.4779880931793894,
                    5.685126763179389,
                    1.4974847475
                ],
                "label": "O",
                "properties": {}
            },
            {
                "species": [
                    {
                        "element": "O",
                        "occu": 1
                    }
                ],
                "abc": [
                    0.32434759,
                    0.17565241,
                    0.75
                ],
                "xyz": [
                    2.7291505768206106,
                    1.4779880931793894,
                    4.4924542425
                ],
                "label": "O",
                "properties": {}
            },
            {
                "species": [
                    {
                        "element": "O",
                        "occu": 1
                    }
                ],
                "abc": [
                    0.67565241,
                    0.82434759,
                    0.75
                ],
                "xyz": [
                    5.685126763179389,
                    6.9362892468206105,
                    4.4924542425
                ],
                "label": "O",
                "properties": {}
            },
            {
                "species": [
                    {
                        "element": "O",
                        "occu": 1
                    }
                ],
                "abc": [
                    0.82434759,
                    0.32434759,
                    0.25
                ],
                "xyz": [
                    6.9362892468206105,
                    2.7291505768206106,
                    1.4974847475
                ],
                "label": "O",
                "properties": {}
            },
            {
                "species": [
                    {
                        "element": "O",
                        "occu": 1
                    }
                ],
                "abc": [
                    0.82434759,
                    0.32434759,
                    0.75
                ],
                "xyz": [
                    6.9362892468206105,
                    2.7291505768206106,
                    4.4924542425
                ],
                "label": "O",
                "properties": {}
            },
            {
                "species": [
                    {
                        "element": "O",
                        "occu": 1
                    }
                ],
                "abc": [
                    0.67565241,
                    0.82434759,
                    0.25
                ],
                "xyz": [
                    5.685126763179389,
                    6.9362892468206105,
                    1.4974847475
                ],
                "label": "O",
                "properties": {}
            },
            {
                "species": [
                    {
                        "element": "O",
                        "occu": 1
                    }
                ],
                "abc": [
                    0.32434759,
                    0.17565241,
                    0.25
                ],
                "xyz": [
                    2.7291505768206106,
                    1.4779880931793894,
                    1.4974847475
                ],
                "label": "O",
                "properties": {}
            },
            {
                "species": [
                    {
                        "element": "O",
                        "occu": 1
                    }
                ],
                "abc": [
                    0.17565241,
                    0.67565241,
                    0.75
                ],
                "xyz": [
                    1.4779880931793894,
                    5.685126763179389,
                    4.4924542425
                ],
                "label": "O",
                "properties": {}
            }
        ]
    },
    "spacegroup": {
        "source": "spglib",
        "symbol": "P4_2/mbc",
        "number": 135,
        "point_group": "4/mmm",
        "crystal_system": "tetragonal",
        "hall": "-P 4c 2ab"
    },
    "dielectric": {
        "epsilon_ionic": [
            [
                5.43926191,
                -1e-07,
                1e-08
            ],
            [
                -1e-07,
                5.43926194,
                1e-08
            ],
            [
                1e-08,
                1e-08,
                6.71199508
            ]
        ],
        "epsilon_ionic_avg": 5.863506310000001,
        "epsilon_ionic_eig": [
            5.439261823881259,
            5.439262026118743,
            6.71199508
        ],
        "epsilon_electronic": [
            [
                4.68222066,
                -0.0,
                0.0
            ],
            [
                0.0,
                4.68222066,
                -0.0
            ],
            [
                0.0,
                -0.0,
                4.86656998
            ]
        ],
        "epsilon_electronic_avg": 4.743670433333333,
        "epsilon_electronic_eig": [
            4.68222066,
            4.68222066,
            4.86656998
        ]
    },
    "phonon": {
        "lowest_freq": -0.07052454246992862,
        "frequency": [
            -0.07052454246992862,
            -0.05867755994502151,
            -0.05867755994502151,
            1.5949675690254432,
            1.5949675690254432,
            1.7601451063510287,
            1.774046680645969,
            2.42126248179223,
            2.6358162804999443,
            2.6358162804999443,
            3.0888127281060704,
            3.0888127281060704,
            3.1514003211983272,
            3.406113626223437,
            3.4361983535409912,
            3.7077178440672456,
            3.7863656153405962,
            3.7863656153405962,
            3.7965440689839776,
            3.8192810525035443,
            4.509194984719288,
            4.509194984719288,
            4.715611547190106,
            4.715611547190106,
            5.058532054898718,
            5.2329949618493465,
            5.341466923827529,
            5.385339373726508,
            5.385339373726508,
            5.397098867020321,
            5.6593472012928805,
            5.950271782683867,
            5.9780689219599665,
            7.429937176535402,
            8.25811145275897,
            8.25811145275897,
            8.43744310635623,
            8.592648040966322,
            8.592648040966322,
            8.62994985221719,
            8.740870097254833,
            8.740870097254833,
            8.986635333710968,
            8.986635333710968,
            9.738421533398881,
            9.738421533398881,
            10.630272223316934,
            10.95254275671463,
            11.212581059197094,
            11.212581059197094,
            11.318759935961356,
            12.014986014447873,
            12.014986014447873,
            12.096458470549146,
            12.103141248216657,
            12.797863911714646,
            12.811794284822373,
            12.811794284822373,
            12.888661451373443,
            13.104943109271773,
            14.423346138146107,
            14.920590457182458,
            15.144198555619601,
            15.144198555619601,
            15.339094956077973,
            15.339094956077973,
            15.67604169561879,
            16.214267189133366,
            17.216667680153442,
            17.254086811374563,
            17.254086811374563,
            17.284967196265946,
            17.938779576993053,
            18.129950574554925,
            18.129950574554925,
            18.751822979466006,
            18.751822979466006,
            19.24200086872245,
            20.04581872605387,
            20.457306944367136,
            20.872485658091378,
            20.872485658091378,
            21.30944383400642,
            22.041253387457676
        ]
    },
    "born_effective_charge": {
        "avg_abs_trace": 2.4374733333333336,
        "tensors": [
            [
                [
                    2.24627,
                    -0.17623,
                    0.00013
                ],
                [
                    -0.17623,
                    2.24627,
                    -0.00013
                ],
                [
                    -0.0,
                    -0.0,
                    1.98344
                ]
            ],
            [
                [
                    2.24627,
                    0.17623,
                    -0.00013
                ],
                [
                    0.17623,
                    2.24627,
                    0.00013
                ],
                [
                    -0.0,
                    -0.0,
                    1.98344
                ]
            ],
            [
                [
                    2.24627,
                    -0.17623,
                    -0.00013
                ],
                [
                    -0.17623,
                    2.24627,
                    0.00013
                ],
                [
                    -0.0,
                    -0.0,
                    1.98344
                ]
            ],
            [
                [
                    2.24627,
                    0.17623,
                    0.00013
                ],
                [
                    0.17623,
                    2.24627,
                    -0.00013
                ],
                [
                    -0.0,
                    -0.0,
                    1.98344
                ]
            ],
            [
                [
                    3.44165,
                    -0.63615,
                    -0.0
                ],
                [
                    -0.47456,
                    2.58825,
                    -0.0
                ],
                [
                    0.00017,
                    0.0004,
                    3.52896
                ]
            ],
            [
                [
                    2.58858,
                    0.47453,
                    -0.0
                ],
                [
                    0.63615,
                    3.44165,
                    -0.0
                ],
                [
                    -0.0004,
                    0.00017,
                    3.52896
                ]
            ],
            [
                [
                    2.58825,
                    0.47456,
                    -0.0
                ],
                [
                    0.63582,
                    3.4411,
                    -0.0
                ],
                [
                    0.0004,
                    -0.00017,
                    3.52896
                ]
            ],
            [
                [
                    3.44165,
                    0.63615,
                    -0.0
                ],
                [
                    0.47453,
                    2.58858,
                    -0.0
                ],
                [
                    0.00017,
                    -0.0004,
                    3.52896
                ]
            ],
            [
                [
                    3.4411,
                    0.63582,
                    -0.0
                ],
                [
                    0.47456,
                    2.58825,
                    -0.0
                ],
                [
                    -0.00017,
                    0.0004,
                    3.52896
                ]
            ],
            [
                [
                    3.4411,
                    -0.63582,
                    -0.0
                ],
                [
                    -0.47453,
                    2.58858,
                    -0.0
                ],
                [
                    -0.00017,
                    -0.0004,
                    3.52896
                ]
            ],
            [
                [
                    2.58825,
                    -0.47456,
                    -0.0
                ],
                [
                    -0.63615,
                    3.44165,
                    -0.0
                ],
                [
                    0.0004,
                    0.00017,
                    3.52896
                ]
            ],
            [
                [
                    2.58858,
                    -0.47453,
                    -0.0
                ],
                [
                    -0.63582,
                    3.4411,
                    -0.0
                ],
                [
                    -0.0004,
                    -0.00017,
                    3.52896
                ]
            ],
            [
                [
                    -3.35485,
                    -0.24548,
                    -0.0
                ],
                [
                    0.25104,
                    -1.45527,
                    -0.0
                ],
                [
                    0.00018,
                    6e-05,
                    -1.55266
                ]
            ],
            [
                [
                    -1.45574,
                    -0.25079,
                    -0.0
                ],
                [
                    0.24548,
                    -3.35485,
                    -0.0
                ],
                [
                    -6e-05,
                    0.00018,
                    -1.55266
                ]
            ],
            [
                [
                    -1.45527,
                    -0.25104,
                    -0.0
                ],
                [
                    0.24496,
                    -3.35508,
                    -0.0
                ],
                [
                    6e-05,
                    -0.00018,
                    -1.55266
                ]
            ],
            [
                [
                    -3.35485,
                    0.24548,
                    -0.0
                ],
                [
                    -0.25079,
                    -1.45574,
                    -0.0
                ],
                [
                    0.00018,
                    -6e-05,
                    -1.55266
                ]
            ],
            [
                [
                    -3.35508,
                    0.24496,
                    -0.0
                ],
                [
                    -0.25104,
                    -1.45527,
                    -0.0
                ],
                [
                    -0.00018,
                    6e-05,
                    -1.55266
                ]
            ],
            [
                [
                    -3.35508,
                    -0.24496,
                    -0.0
                ],
                [
                    0.25079,
                    -1.45574,
                    -0.0
                ],
                [
                    -0.00018,
                    -6e-05,
                    -1.55266
                ]
            ],
            [
                [
                    -1.45527,
                    0.25104,
                    -0.0
                ],
                [
                    -0.24548,
                    -3.35485,
                    -0.0
                ],
                [
                    6e-05,
                    0.00018,
                    -1.55266
                ]
            ],
            [
                [
                    -1.45574,
                    0.25079,
                    -0.0
                ],
                [
                    -0.24496,
                    -3.35508,
                    -0.0
                ],
                [
                    -6e-05,
                    -0.00018,
                    -1.55266
                ]
            ],
            [
                [
                    -1.73268,
                    0.04932,
                    -0.57152
                ],
                [
                    0.04932,
                    -1.73268,
                    0.57152
                ],
                [
                    -1.01985,
                    1.01988,
                    -2.96801
                ]
            ],
            [
                [
                    -1.73291,
                    -0.04962,
                    -0.57188
                ],
                [
                    -0.04932,
                    -1.73268,
                    -0.57152
                ],
                [
                    -1.01988,
                    -1.01985,
                    -2.96801
                ]
            ],
            [
                [
                    -1.73268,
                    -0.04932,
                    0.57152
                ],
                [
                    -0.04962,
                    -1.73291,
                    0.57188
                ],
                [
                    1.01988,
                    1.01985,
                    -2.96801
                ]
            ],
            [
                [
                    -1.73291,
                    0.04962,
                    0.57188
                ],
                [
                    0.04962,
                    -1.73291,
                    -0.57188
                ],
                [
                    1.01985,
                    -1.01988,
                    -2.96801
                ]
            ],
            [
                [
                    -1.73291,
                    0.04962,
                    -0.57188
                ],
                [
                    0.04962,
                    -1.73291,
                    0.57188
                ],
                [
                    -1.01988,
                    1.01985,
                    -2.96801
                ]
            ],
            [
                [
                    -1.73268,
                    -0.04932,
                    -0.57152
                ],
                [
                    -0.04962,
                    -1.73291,
                    -0.57188
                ],
                [
                    -1.01985,
                    -1.01988,
                    -2.96801
                ]
            ],
            [
                [
                    -1.73291,
                    -0.04962,
                    0.57188
                ],
                [
                    -0.04932,
                    -1.73268,
                    0.57152
                ],
                [
                    1.01985,
                    1.01988,
                    -2.96801
                ]
            ],
            [
                [
                    -1.73268,
                    0.04932,
                    0.57152
                ],
                [
                    0.04932,
                    -1.73268,
                    -0.57152
                ],
                [
                    1.01988,
                    -1.01985,
                    -2.96801
                ]
            ]
        ]
    },
    "band_gap": 2.3513,
    "is_direct": false,
    "formula": "Mg(SbO2)2"
}