{
    "mp_id": "mp-23558",
    "nelements": 3,
    "nsites": 24,
    "elements": [
        "Ag",
        "Bi",
        "O"
    ],
    "structure": {
        "@module": "pymatgen.core.structure",
        "@class": "Structure",
        "charge": null,
        "lattice": {
            "matrix": [
                [
                    6.02805336,
                    0.0,
                    0.0
                ],
                [
                    0.0,
                    6.24047045,
                    0.0
                ],
                [
                    0.0,
                    0.0,
                    9.54205901
                ]
            ],
            "a": 6.02805336,
            "b": 6.24047045,
            "c": 9.54205901,
            "alpha": 90.0,
            "beta": 90.0,
            "gamma": 90.0,
            "volume": 358.9521153728947
        },
        "sites": [
            {
                "species": [
                    {
                        "element": "Ag",
                        "occu": 1
                    }
                ],
                "abc": [
                    0.97273618,
                    0.7534899,
                    0.25309644
                ],
                "xyz": [
                    5.863705598242565,
                    4.702131455323455,
                    2.4150611657009238
                ],
                "label": "Ag",
                "properties": {}
            },
            {
                "species": [
                    {
                        "element": "Ag",
                        "occu": 1
                    }
                ],
                "abc": [
                    0.74670299,
                    0.00210886,
                    0.50050995
                ],
                "xyz": [
                    4.501165467791546,
                    0.013160278513187,
                    4.775895477992149
                ],
                "label": "Ag",
                "properties": {}
            },
            {
                "species": [
                    {
                        "element": "Ag",
                        "occu": 1
                    }
                ],
                "abc": [
                    0.24670299,
                    0.49789114,
                    0.00050995
                ],
                "xyz": [
                    1.4871387877915465,
                    3.1070749464868133,
                    0.004865972992149499
                ],
                "label": "Ag",
                "properties": {}
            },
            {
                "species": [
                    {
                        "element": "Ag",
                        "occu": 1
                    }
                ],
                "abc": [
                    0.75329701,
                    0.50210886,
                    0.00050995
                ],
                "xyz": [
                    4.540914572208454,
                    3.133395503513187,
                    0.004865972992149499
                ],
                "label": "Ag",
                "properties": {}
            },
            {
                "species": [
                    {
                        "element": "Ag",
                        "occu": 1
                    }
                ],
                "abc": [
                    0.52726382,
                    0.2534899,
                    0.75309644
                ],
                "xyz": [
                    3.1783744417574358,
                    1.581896230323455,
                    7.186090670700923
                ],
                "label": "Ag",
                "properties": {}
            },
            {
                "species": [
                    {
                        "element": "Ag",
                        "occu": 1
                    }
                ],
                "abc": [
                    0.47273618,
                    0.7465101,
                    0.75309644
                ],
                "xyz": [
                    2.849678918242565,
                    4.658574219676545,
                    7.186090670700923
                ],
                "label": "Ag",
                "properties": {}
            },
            {
                "species": [
                    {
                        "element": "Ag",
                        "occu": 1
                    }
                ],
                "abc": [
                    0.02726382,
                    0.2465101,
                    0.25309644
                ],
                "xyz": [
                    0.1643477617574352,
                    1.5383389946765451,
                    2.4150611657009238
                ],
                "label": "Ag",
                "properties": {}
            },
            {
                "species": [
                    {
                        "element": "Ag",
                        "occu": 1
                    }
                ],
                "abc": [
                    0.25329701,
                    0.99789114,
                    0.50050995
                ],
                "xyz": [
                    1.5268878922084537,
                    6.227310171486813,
                    4.775895477992149
                ],
                "label": "Ag",
                "properties": {}
            },
            {
                "species": [
                    {
                        "element": "Bi",
                        "occu": 1
                    }
                ],
                "abc": [
                    0.0,
                    0.0,
                    0.89647873
                ],
                "xyz": [
                    0.0,
                    0.0,
                    8.554252942869857
                ],
                "label": "Bi",
                "properties": {}
            },
            {
                "species": [
                    {
                        "element": "Bi",
                        "occu": 1
                    }
                ],
                "abc": [
                    0.5,
                    0.5,
                    0.39647873
                ],
                "xyz": [
                    3.01402668,
                    3.120235225,
                    3.783223437869857
                ],
                "label": "Bi",
                "properties": {}
            },
            {
                "species": [
                    {
                        "element": "Bi",
                        "occu": 1
                    }
                ],
                "abc": [
                    0.0,
                    0.5,
                    0.60452385
                ],
                "xyz": [
                    0.0,
                    3.120235225,
                    5.768402249652388
                ],
                "label": "Bi",
                "properties": {}
            },
            {
                "species": [
                    {
                        "element": "Bi",
                        "occu": 1
                    }
                ],
                "abc": [
                    0.5,
                    0.0,
                    0.10452385
                ],
                "xyz": [
                    3.01402668,
                    0.0,
                    0.9973727446523885
                ],
                "label": "Bi",
                "properties": {}
            },
            {
                "species": [
                    {
                        "element": "O",
                        "occu": 1
                    }
                ],
                "abc": [
                    0.88643367,
                    0.21646029,
                    0.74107394
                ],
                "xyz": [
                    5.343469462860631,
                    1.3508140433434306,
                    7.071371266253199
                ],
                "label": "O",
                "properties": {}
            },
            {
                "species": [
                    {
                        "element": "O",
                        "occu": 1
                    }
                ],
                "abc": [
                    0.11356633,
                    0.78353971,
                    0.74107394
                ],
                "xyz": [
                    0.6845838971393688,
                    4.889656406656569,
                    7.071371266253199
                ],
                "label": "O",
                "properties": {}
            },
            {
                "species": [
                    {
                        "element": "O",
                        "occu": 1
                    }
                ],
                "abc": [
                    0.61356633,
                    0.71646029,
                    0.24107394
                ],
                "xyz": [
                    3.698610577139369,
                    4.471049268343431,
                    2.300341761253199
                ],
                "label": "O",
                "properties": {}
            },
            {
                "species": [
                    {
                        "element": "O",
                        "occu": 1
                    }
                ],
                "abc": [
                    0.38643367,
                    0.28353971,
                    0.24107394
                ],
                "xyz": [
                    2.3294427828606312,
                    1.7694211816565695,
                    2.300341761253199
                ],
                "label": "O",
                "properties": {}
            },
            {
                "species": [
                    {
                        "element": "O",
                        "occu": 1
                    }
                ],
                "abc": [
                    0.69455303,
                    0.81813939,
                    0.93160743
                ],
                "xyz": [
                    4.186802726189681,
                    5.105574687276026,
                    8.889453071214444
                ],
                "label": "O",
                "properties": {}
            },
            {
                "species": [
                    {
                        "element": "O",
                        "occu": 1
                    }
                ],
                "abc": [
                    0.30544697,
                    0.18186061,
                    0.93160743
                ],
                "xyz": [
                    1.8412506338103192,
                    1.1348957627239746,
                    8.889453071214444
                ],
                "label": "O",
                "properties": {}
            },
            {
                "species": [
                    {
                        "element": "O",
                        "occu": 1
                    }
                ],
                "abc": [
                    0.80544697,
                    0.31813939,
                    0.43160743
                ],
                "xyz": [
                    4.855277313810319,
                    1.9853394622760256,
                    4.118423566214444
                ],
                "label": "O",
                "properties": {}
            },
            {
                "species": [
                    {
                        "element": "O",
                        "occu": 1
                    }
                ],
                "abc": [
                    0.19455303,
                    0.68186061,
                    0.43160743
                ],
                "xyz": [
                    1.1727760461896808,
                    4.255130987723974,
                    4.118423566214444
                ],
                "label": "O",
                "properties": {}
            },
            {
                "species": [
                    {
                        "element": "O",
                        "occu": 1
                    }
                ],
                "abc": [
                    0.32683703,
                    0.31466722,
                    0.55814094
                ],
                "xyz": [
                    1.9701910568639207,
                    1.9636714879936492,
                    5.3258137853768694
                ],
                "label": "O",
                "properties": {}
            },
            {
                "species": [
                    {
                        "element": "O",
                        "occu": 1
                    }
                ],
                "abc": [
                    0.82683703,
                    0.18533278,
                    0.05814094
                ],
                "xyz": [
                    4.984217736863921,
                    1.156563737006351,
                    0.5547842803768693
                ],
                "label": "O",
                "properties": {}
            },
            {
                "species": [
                    {
                        "element": "O",
                        "occu": 1
                    }
                ],
                "abc": [
                    0.17316297,
                    0.81466722,
                    0.05814094
                ],
                "xyz": [
                    1.0438356231360792,
                    5.083906712993649,
                    0.5547842803768693
                ],
                "label": "O",
                "properties": {}
            },
            {
                "species": [
                    {
                        "element": "O",
                        "occu": 1
                    }
                ],
                "abc": [
                    0.67316297,
                    0.68533278,
                    0.55814094
                ],
                "xyz": [
                    4.05786230313608,
                    4.276798962006351,
                    5.3258137853768694
                ],
                "label": "O",
                "properties": {}
            }
        ]
    },
    "spacegroup": {
        "source": "spglib",
        "symbol": "Pnn2",
        "number": 34,
        "point_group": "mm2",
        "crystal_system": "orthorhombic",
        "hall": "P 2 -2n"
    },
    "dielectric": {
        "epsilon_ionic": [
            [
                9.55167515,
                -0.0,
                5.91e-06
            ],
            [
                -0.0,
                10.70476305,
                -2.61e-06
            ],
            [
                5.91e-06,
                -2.61e-06,
                16.95404593
            ]
        ],
        "epsilon_ionic_avg": 12.403494709999995,
        "epsilon_ionic_eig": [
            9.55167514999528,
            16.95404593000579,
            10.704763049998911
        ],
        "epsilon_electronic": [
            [
                8.88887425,
                0.0,
                0.0
            ],
            [
                0.0,
                10.67697341,
                0.0
            ],
            [
                0.0,
                0.0,
                9.34734248
            ]
        ],
        "epsilon_electronic_avg": 9.637730046666668,
        "epsilon_electronic_eig": [
            8.88887425,
            10.67697341,
            9.34734248
        ]
    },
    "phonon": {
        "lowest_freq": -0.04780738545987089,
        "frequency": [
            -0.04780738545987089,
            -0.038539939152371736,
            -0.03346857626563607,
            0.44296651060250886,
            0.6220949829099397,
            0.9551602252622076,
            0.9622974961092421,
            1.0176746146615163,
            1.1603117606751456,
            1.2413590067031723,
            1.3127183795627186,
            1.4908659850543022,
            1.5064465517967112,
            1.5234484337007221,
            1.714689604737717,
            1.7204656536139222,
            1.9353413962404846,
            2.0322393725385015,
            2.253993646240026,
            2.2686586518019234,
            2.326780043971045,
            2.395638429981136,
            2.4228211969261957,
            2.466060797991215,
            2.8046350793417227,
            3.0338204618690088,
            3.1736382097152647,
            3.266188120757798,
            3.6566488676787756,
            3.738747127862963,
            3.7568437054906556,
            3.8436044817749244,
            3.944456730765719,
            4.212709492669948,
            4.7718331530368605,
            5.274053436544095,
            5.428291890086012,
            5.468455207726793,
            5.643398539306519,
            5.665888421229069,
            8.559727128610872,
            8.762305280645853,
            8.955831734344875,
            9.135316231416235,
            9.226475585751524,
            9.428860183178376,
            9.529794403581295,
            9.79883880012863,
            9.893499196871403,
            10.182837212296594,
            10.38988789871569,
            10.672996585591866,
            10.970194058253835,
            10.987828670377565,
            11.299438685745683,
            11.684863691810783,
            11.767207475787993,
            11.88318852517516,
            12.294602205316478,
            12.632502967610122,
            13.336203911061409,
            13.449444938245392,
            13.49766334766142,
            13.595794777419112,
            13.79409466151268,
            13.961801416302352,
            14.25016924242615,
            14.277485477002951,
            14.458127841562236,
            14.57743385788267,
            14.630640462844484,
            15.188788034959817
        ]
    },
    "born_effective_charge": {
        "avg_abs_trace": 2.3555419444444445,
        "tensors": [
            [
                [
                    1.44293,
                    -0.02744,
                    0.03074
                ],
                [
                    -0.08532,
                    0.58954,
                    -0.35637
                ],
                [
                    0.01394,
                    -0.19355,
                    1.42568
                ]
            ],
            [
                [
                    0.76434,
                    0.08739,
                    0.22192
                ],
                [
                    0.17638,
                    1.52923,
                    -0.18902
                ],
                [
                    0.17069,
                    -0.04404,
                    0.92775
                ]
            ],
            [
                [
                    0.76434,
                    -0.08739,
                    0.22192
                ],
                [
                    -0.17638,
                    1.52923,
                    0.18902
                ],
                [
                    0.17069,
                    0.04404,
                    0.92775
                ]
            ],
            [
                [
                    0.76434,
                    -0.08739,
                    -0.22192
                ],
                [
                    -0.17638,
                    1.52923,
                    -0.18902
                ],
                [
                    -0.17069,
                    -0.04404,
                    0.92775
                ]
            ],
            [
                [
                    1.44293,
                    0.02744,
                    -0.03074
                ],
                [
                    0.08532,
                    0.58954,
                    -0.35637
                ],
                [
                    -0.01394,
                    -0.19355,
                    1.42568
                ]
            ],
            [
                [
                    1.44293,
                    0.02744,
                    0.03074
                ],
                [
                    0.08532,
                    0.58954,
                    0.35637
                ],
                [
                    0.01394,
                    0.19355,
                    1.42568
                ]
            ],
            [
                [
                    1.44293,
                    -0.02744,
                    -0.03074
                ],
                [
                    -0.08532,
                    0.58954,
                    0.35637
                ],
                [
                    -0.01394,
                    0.19355,
                    1.42568
                ]
            ],
            [
                [
                    0.76434,
                    0.08739,
                    -0.22192
                ],
                [
                    0.17638,
                    1.52923,
                    0.18902
                ],
                [
                    -0.17069,
                    0.04404,
                    0.92775
                ]
            ],
            [
                [
                    5.00691,
                    -0.34864,
                    0.0
                ],
                [
                    -1.11349,
                    4.35421,
                    0.0
                ],
                [
                    -0.0,
                    -0.0,
                    4.8929
                ]
            ],
            [
                [
                    5.00691,
                    0.34864,
                    0.0
                ],
                [
                    1.11349,
                    4.35421,
                    0.0
                ],
                [
                    -0.0,
                    -0.0,
                    4.8929
                ]
            ],
            [
                [
                    5.23887,
                    0.43028,
                    0.0
                ],
                [
                    -0.02498,
                    4.90329,
                    0.0
                ],
                [
                    -0.0,
                    -0.0,
                    4.64465
                ]
            ],
            [
                [
                    5.23887,
                    -0.43028,
                    0.0
                ],
                [
                    0.02498,
                    4.90329,
                    0.0
                ],
                [
                    -0.0,
                    -0.0,
                    4.64465
                ]
            ],
            [
                [
                    -1.602,
                    -0.29398,
                    0.31018
                ],
                [
                    0.85065,
                    -2.71914,
                    1.5558
                ],
                [
                    -0.13871,
                    0.55855,
                    -2.64829
                ]
            ],
            [
                [
                    -1.602,
                    -0.29398,
                    -0.31018
                ],
                [
                    0.85065,
                    -2.71914,
                    -1.5558
                ],
                [
                    0.13871,
                    -0.55855,
                    -2.64829
                ]
            ],
            [
                [
                    -1.602,
                    0.29398,
                    -0.31018
                ],
                [
                    -0.85065,
                    -2.71914,
                    1.5558
                ],
                [
                    0.13871,
                    0.55855,
                    -2.64829
                ]
            ],
            [
                [
                    -1.602,
                    0.29398,
                    0.31018
                ],
                [
                    -0.85065,
                    -2.71914,
                    -1.5558
                ],
                [
                    -0.13871,
                    -0.55855,
                    -2.64829
                ]
            ],
            [
                [
                    -2.86409,
                    -0.36267,
                    0.4925
                ],
                [
                    0.02095,
                    -2.37318,
                    -0.61496
                ],
                [
                    1.1398,
                    0.08756,
                    -2.31928
                ]
            ],
            [
                [
                    -2.86409,
                    -0.36267,
                    -0.4925
                ],
                [
                    0.02095,
                    -2.37318,
                    0.61496
                ],
                [
                    -1.1398,
                    -0.08756,
                    -2.31928
                ]
            ],
            [
                [
                    -2.86409,
                    0.36267,
                    -0.4925
                ],
                [
                    -0.02095,
                    -2.37318,
                    -0.61496
                ],
                [
                    -1.1398,
                    0.08756,
                    -2.31928
                ]
            ],
            [
                [
                    -2.86409,
                    0.36267,
                    0.4925
                ],
                [
                    -0.02095,
                    -2.37318,
                    0.61496
                ],
                [
                    1.1398,
                    -0.08756,
                    -2.31928
                ]
            ],
            [
                [
                    -2.86406,
                    0.01098,
                    0.8282
                ],
                [
                    0.51365,
                    -1.6552,
                    -0.27715
                ],
                [
                    0.49667,
                    0.39671,
                    -2.15463
                ]
            ],
            [
                [
                    -2.86406,
                    -0.01098,
                    0.8282
                ],
                [
                    -0.51365,
                    -1.6552,
                    0.27715
                ],
                [
                    0.49667,
                    -0.39671,
                    -2.15463
                ]
            ],
            [
                [
                    -2.86406,
                    -0.01098,
                    -0.8282
                ],
                [
                    -0.51365,
                    -1.6552,
                    -0.27715
                ],
                [
                    -0.49667,
                    0.39671,
                    -2.15463
                ]
            ],
            [
                [
                    -2.86406,
                    0.01098,
                    -0.8282
                ],
                [
                    0.51365,
                    -1.6552,
                    0.27715
                ],
                [
                    -0.49667,
                    -0.39671,
                    -2.15463
                ]
            ]
        ]
    },
    "band_gap": 0.6339000000000006,
    "is_direct": false,
    "formula": "Ag2BiO3"
}