{
    "mp_id": "mp-29396",
    "nelements": 3,
    "nsites": 10,
    "elements": [
        "Cu",
        "O",
        "Pb"
    ],
    "structure": {
        "@module": "pymatgen.core.structure",
        "@class": "Structure",
        "charge": null,
        "lattice": {
            "matrix": [
                [
                    4.0754501,
                    -4.05391163,
                    0.00016315
                ],
                [
                    4.0754501,
                    4.05391163,
                    0.00016315
                ],
                [
                    -4.03316277,
                    0.0,
                    4.38082994
                ]
            ],
            "a": 5.748346983964798,
            "b": 5.748346983964798,
            "c": 5.954668159731025,
            "alpha": 118.69700260124743,
            "beta": 118.69700260124743,
            "gamma": 89.69639418980107,
            "volume": 144.76122629145164
        },
        "sites": [
            {
                "species": [
                    {
                        "element": "Cu",
                        "occu": 1
                    }
                ],
                "abc": [
                    0.5,
                    0.5,
                    0.0
                ],
                "xyz": [
                    4.0754501,
                    0.0,
                    0.00016315
                ],
                "label": "Cu",
                "properties": {}
            },
            {
                "species": [
                    {
                        "element": "Cu",
                        "occu": 1
                    }
                ],
                "abc": [
                    0.5,
                    0.5,
                    0.5
                ],
                "xyz": [
                    2.0588687150000005,
                    0.0,
                    2.19057812
                ],
                "label": "Cu",
                "properties": {}
            },
            {
                "species": [
                    {
                        "element": "Cu",
                        "occu": 1
                    }
                ],
                "abc": [
                    0.0,
                    0.5,
                    0.5
                ],
                "xyz": [
                    0.02114366500000031,
                    2.026955815,
                    2.190496545
                ],
                "label": "Cu",
                "properties": {}
            },
            {
                "species": [
                    {
                        "element": "Cu",
                        "occu": 1
                    }
                ],
                "abc": [
                    0.5,
                    0.0,
                    0.0
                ],
                "xyz": [
                    2.03772505,
                    -2.026955815,
                    8.1575e-05
                ],
                "label": "Cu",
                "properties": {}
            },
            {
                "species": [
                    {
                        "element": "Pb",
                        "occu": 1
                    }
                ],
                "abc": [
                    0.86792936,
                    0.13207064,
                    0.75
                ],
                "xyz": [
                    1.0505780225000008,
                    -2.9831062230449135,
                    3.285785605
                ],
                "label": "Pb",
                "properties": {}
            },
            {
                "species": [
                    {
                        "element": "Pb",
                        "occu": 1
                    }
                ],
                "abc": [
                    0.13207064,
                    0.86792936,
                    0.25
                ],
                "xyz": [
                    3.0671594075,
                    2.9831062230449135,
                    1.0953706349999999
                ],
                "label": "Pb",
                "properties": {}
            },
            {
                "species": [
                    {
                        "element": "O",
                        "occu": 1
                    }
                ],
                "abc": [
                    0.85409529,
                    0.7181857,
                    0.71195472
                ],
                "xyz": [
                    3.536323447293826,
                    -0.5509654675295312,
                    3.1192090709438354
                ],
                "label": "O",
                "properties": {}
            },
            {
                "species": [
                    {
                        "element": "O",
                        "occu": 1
                    }
                ],
                "abc": [
                    0.2818143,
                    0.14590471,
                    0.78804528
                ],
                "xyz": [
                    -1.4351674022938243,
                    -0.5509654675295318,
                    3.4523621390561647
                ],
                "label": "O",
                "properties": {}
            },
            {
                "species": [
                    {
                        "element": "O",
                        "occu": 1
                    }
                ],
                "abc": [
                    0.14590471,
                    0.2818143,
                    0.28804528
                ],
                "xyz": [
                    0.5814139827061755,
                    0.5509654675295318,
                    1.2619471690561648
                ],
                "label": "O",
                "properties": {}
            },
            {
                "species": [
                    {
                        "element": "O",
                        "occu": 1
                    }
                ],
                "abc": [
                    0.7181857,
                    0.85409529,
                    0.21195472
                ],
                "xyz": [
                    5.552904832293826,
                    0.5509654675295312,
                    0.9287941009438354
                ],
                "label": "O",
                "properties": {}
            }
        ]
    },
    "spacegroup": {
        "source": "spglib",
        "symbol": "C2/c",
        "number": 15,
        "point_group": "2/m",
        "crystal_system": "monoclinic",
        "hall": "-C 2yc"
    },
    "dielectric": {
        "epsilon_ionic": [
            [
                6.52978848,
                -1.9e-07,
                -4.25264134
            ],
            [
                -1.9e-07,
                3.67164393,
                2.1e-07
            ],
            [
                -4.25264134,
                2.1e-07,
                9.48042075
            ]
        ],
        "epsilon_ionic_avg": 6.560617720000003,
        "epsilon_ionic_eig": [
            12.506383995894776,
            3.5038252341052347,
            3.6716439299999992
        ],
        "epsilon_electronic": [
            [
                7.88272577,
                0.0,
                -0.05758683
            ],
            [
                0.0,
                8.40197614,
                0.0
            ],
            [
                -0.05759097,
                0.0,
                7.72796128
            ]
        ],
        "epsilon_electronic_avg": 8.004221063333333,
        "epsilon_electronic_eig": [
            7.901803326161755,
            7.7088837238382455,
            8.40197614
        ]
    },
    "phonon": {
        "lowest_freq": -0.07737665530090784,
        "frequency": [
            -0.07737665530090784,
            -0.03780281088982195,
            -0.03643921463019108,
            0.9473772537508245,
            1.7118242539221102,
            2.0252600627642194,
            2.28052037557498,
            2.529950357195019,
            2.939960725578966,
            3.0129804713757946,
            3.041516265844522,
            3.3183147284828087,
            3.443248968529641,
            3.4800784781602725,
            3.777857009277116,
            4.063350322210824,
            5.876372420042055,
            5.951478941736221,
            8.616669181360999,
            9.553592152187496,
            9.949375543495709,
            11.308724850637251,
            13.880706064249944,
            14.42407917523144,
            15.121079735143814,
            15.269080868945668,
            16.163749803589962,
            16.461056518853297,
            17.464173400325137,
            18.01160629538134
        ]
    },
    "born_effective_charge": {
        "avg_abs_trace": 1.8474136666666667,
        "tensors": [
            [
                [
                    1.03525,
                    0.40713,
                    0.37458
                ],
                [
                    0.37165,
                    0.24118,
                    0.01552
                ],
                [
                    0.49333,
                    0.1449,
                    0.8286
                ]
            ],
            [
                [
                    1.03525,
                    -0.40713,
                    0.37458
                ],
                [
                    -0.37165,
                    0.24118,
                    -0.01552
                ],
                [
                    0.49333,
                    -0.1449,
                    0.8286
                ]
            ],
            [
                [
                    0.29152,
                    -0.1653,
                    0.06486
                ],
                [
                    -0.34659,
                    1.14418,
                    0.39929
                ],
                [
                    -0.08681,
                    0.42308,
                    0.58206
                ]
            ],
            [
                [
                    0.29152,
                    0.1653,
                    0.06486
                ],
                [
                    0.34659,
                    1.14418,
                    -0.39929
                ],
                [
                    -0.08681,
                    -0.42308,
                    0.58206
                ]
            ],
            [
                [
                    3.01646,
                    -0.00031,
                    -0.54795
                ],
                [
                    0.0,
                    3.26706,
                    0.0
                ],
                [
                    -0.51834,
                    0.0004,
                    3.44933
                ]
            ],
            [
                [
                    3.01646,
                    0.00031,
                    -0.54795
                ],
                [
                    0.0,
                    3.26699,
                    0.0
                ],
                [
                    -0.51834,
                    -0.0004,
                    3.44933
                ]
            ],
            [
                [
                    -2.17175,
                    -0.72787,
                    0.0542
                ],
                [
                    -0.71972,
                    -2.32583,
                    0.11346
                ],
                [
                    0.05612,
                    0.08077,
                    -2.43019
                ]
            ],
            [
                [
                    -2.17148,
                    0.72678,
                    0.05432
                ],
                [
                    0.71972,
                    -2.32583,
                    -0.11346
                ],
                [
                    0.0557,
                    -0.07986,
                    -2.4298
                ]
            ],
            [
                [
                    -2.17148,
                    -0.72678,
                    0.05432
                ],
                [
                    -0.72047,
                    -2.32655,
                    0.11314
                ],
                [
                    0.0557,
                    0.07986,
                    -2.4298
                ]
            ],
            [
                [
                    -2.17175,
                    0.72787,
                    0.0542
                ],
                [
                    0.72047,
                    -2.32655,
                    -0.11314
                ],
                [
                    0.05612,
                    -0.08077,
                    -2.43019
                ]
            ]
        ]
    },
    "band_gap": 0.7240000000000002,
    "is_direct": false,
    "formula": "Cu2PbO2"
}