{
    "mp_id": "mp-27911",
    "nelements": 3,
    "nsites": 24,
    "elements": [
        "As",
        "Bi",
        "O"
    ],
    "structure": {
        "@module": "pymatgen.core.structure",
        "@class": "Structure",
        "charge": null,
        "lattice": {
            "matrix": [
                [
                    6.74755239,
                    0.0,
                    -0.00082426
                ],
                [
                    0.0,
                    7.15876851,
                    0.0
                ],
                [
                    -4.9536143,
                    0.0,
                    6.64695167
                ]
            ],
            "a": 6.747552440344518,
            "b": 7.15876851,
            "c": 8.289768460969237,
            "alpha": 90.0,
            "beta": 126.70217357025827,
            "gamma": 90.0,
            "volume": 321.04622427234887
        },
        "sites": [
            {
                "species": [
                    {
                        "element": "Bi",
                        "occu": 1
                    }
                ],
                "abc": [
                    0.80270056,
                    0.36205022,
                    0.21984697
                ],
                "xyz": [
                    4.327226987678667,
                    2.591833713974572,
                    1.4606505504223544
                ],
                "label": "Bi",
                "properties": {}
            },
            {
                "species": [
                    {
                        "element": "Bi",
                        "occu": 1
                    }
                ],
                "abc": [
                    0.19729944,
                    0.86205022,
                    0.28015303
                ],
                "xyz": [
                    -0.05648174767866743,
                    6.171217968974572,
                    1.8620010245776457
                ],
                "label": "Bi",
                "properties": {}
            },
            {
                "species": [
                    {
                        "element": "Bi",
                        "occu": 1
                    }
                ],
                "abc": [
                    0.19729944,
                    0.63794978,
                    0.78015303
                ],
                "xyz": [
                    -2.533288897678667,
                    4.566934796025428,
                    5.185476859577646
                ],
                "label": "Bi",
                "properties": {}
            },
            {
                "species": [
                    {
                        "element": "Bi",
                        "occu": 1
                    }
                ],
                "abc": [
                    0.80270056,
                    0.13794978,
                    0.71984697
                ],
                "xyz": [
                    1.8504198376786674,
                    0.9875505410254277,
                    4.784126385422354
                ],
                "label": "Bi",
                "properties": {}
            },
            {
                "species": [
                    {
                        "element": "As",
                        "occu": 1
                    }
                ],
                "abc": [
                    0.31135376,
                    0.33787227,
                    0.19991779
                ],
                "xyz": [
                    1.110560184055089,
                    2.4187493668782176,
                    1.3285872516529917
                ],
                "label": "As",
                "properties": {}
            },
            {
                "species": [
                    {
                        "element": "As",
                        "occu": 1
                    }
                ],
                "abc": [
                    0.68864624,
                    0.83787227,
                    0.30008221
                ],
                "xyz": [
                    3.1601850559449103,
                    5.9981336218782175,
                    1.9940643233470083
                ],
                "label": "As",
                "properties": {}
            },
            {
                "species": [
                    {
                        "element": "As",
                        "occu": 1
                    }
                ],
                "abc": [
                    0.68864624,
                    0.66212773,
                    0.80008221
                ],
                "xyz": [
                    0.6833779059449103,
                    4.740019143121782,
                    5.3175401583470085
                ],
                "label": "As",
                "properties": {}
            },
            {
                "species": [
                    {
                        "element": "As",
                        "occu": 1
                    }
                ],
                "abc": [
                    0.31135376,
                    0.16212773,
                    0.69991779
                ],
                "xyz": [
                    -1.3662469659449106,
                    1.1606348881217823,
                    4.6520630866529915
                ],
                "label": "As",
                "properties": {}
            },
            {
                "species": [
                    {
                        "element": "O",
                        "occu": 1
                    }
                ],
                "abc": [
                    0.61484987,
                    0.29217257,
                    0.3916948
                ],
                "xyz": [
                    2.20842674729405,
                    2.091595793601771,
                    2.6030696088364698
                ],
                "label": "O",
                "properties": {}
            },
            {
                "species": [
                    {
                        "element": "O",
                        "occu": 1
                    }
                ],
                "abc": [
                    0.38515013,
                    0.79217257,
                    0.1083052
                ],
                "xyz": [
                    2.0623184927059506,
                    5.67098004860177,
                    0.7195819661635302
                ],
                "label": "O",
                "properties": {}
            },
            {
                "species": [
                    {
                        "element": "O",
                        "occu": 1
                    }
                ],
                "abc": [
                    0.38515013,
                    0.70782743,
                    0.6083052
                ],
                "xyz": [
                    -0.4144886572940494,
                    5.06717271639823,
                    4.04305780116353
                ],
                "label": "O",
                "properties": {}
            },
            {
                "species": [
                    {
                        "element": "O",
                        "occu": 1
                    }
                ],
                "abc": [
                    0.61484987,
                    0.20782743,
                    0.8916948
                ],
                "xyz": [
                    -0.26838040270595,
                    1.4877884613982293,
                    5.92654544383647
                ],
                "label": "O",
                "properties": {}
            },
            {
                "species": [
                    {
                        "element": "O",
                        "occu": 1
                    }
                ],
                "abc": [
                    0.36120238,
                    0.39543628,
                    0.02301715
                ],
                "xyz": [
                    2.323213899057443,
                    2.8308367889755424,
                    0.1526961589574017
                ],
                "label": "O",
                "properties": {}
            },
            {
                "species": [
                    {
                        "element": "O",
                        "occu": 1
                    }
                ],
                "abc": [
                    0.63879762,
                    0.89543628,
                    0.47698285
                ],
                "xyz": [
                    1.9475313409425565,
                    6.410221043975542,
                    3.1699554160425985
                ],
                "label": "O",
                "properties": {}
            },
            {
                "species": [
                    {
                        "element": "O",
                        "occu": 1
                    }
                ],
                "abc": [
                    0.63879762,
                    0.60456372,
                    0.97698285
                ],
                "xyz": [
                    -0.5292758090574434,
                    4.3279317210244574,
                    6.4934312510425976
                ],
                "label": "O",
                "properties": {}
            },
            {
                "species": [
                    {
                        "element": "O",
                        "occu": 1
                    }
                ],
                "abc": [
                    0.36120238,
                    0.10456372,
                    0.52301715
                ],
                "xyz": [
                    -0.15359325094255682,
                    0.7485474660244572,
                    3.4761719939574016
                ],
                "label": "O",
                "properties": {}
            },
            {
                "species": [
                    {
                        "element": "O",
                        "occu": 1
                    }
                ],
                "abc": [
                    0.16041289,
                    0.99732252,
                    0.73659067
                ],
                "xyz": [
                    -2.566391696852274,
                    7.139601050489845,
                    4.895950362134207
                ],
                "label": "O",
                "properties": {}
            },
            {
                "species": [
                    {
                        "element": "O",
                        "occu": 1
                    }
                ],
                "abc": [
                    0.83958711,
                    0.49732252,
                    0.76340933
                ],
                "xyz": [
                    1.8835226368522742,
                    3.560216795489845,
                    5.073652882865793
                ],
                "label": "O",
                "properties": {}
            },
            {
                "species": [
                    {
                        "element": "O",
                        "occu": 1
                    }
                ],
                "abc": [
                    0.83958711,
                    0.00267748,
                    0.26340933
                ],
                "xyz": [
                    4.360329786852274,
                    0.019167459510154798,
                    1.7501770478657923
                ],
                "label": "O",
                "properties": {}
            },
            {
                "species": [
                    {
                        "element": "O",
                        "occu": 1
                    }
                ],
                "abc": [
                    0.16041289,
                    0.50267748,
                    0.23659067
                ],
                "xyz": [
                    -0.0895845468522738,
                    3.5985517145101547,
                    1.5724745271342075
                ],
                "label": "O",
                "properties": {}
            },
            {
                "species": [
                    {
                        "element": "O",
                        "occu": 1
                    }
                ],
                "abc": [
                    0.12458025,
                    0.35584454,
                    0.60759059
                ],
                "xyz": [
                    -2.1691576715351397,
                    2.5474086874074353,
                    4.03852260035992
                ],
                "label": "O",
                "properties": {}
            },
            {
                "species": [
                    {
                        "element": "O",
                        "occu": 1
                    }
                ],
                "abc": [
                    0.87541975,
                    0.85584454,
                    0.89240941
                ],
                "xyz": [
                    1.48628861153514,
                    6.126792942407435,
                    5.93108064464008
                ],
                "label": "O",
                "properties": {}
            },
            {
                "species": [
                    {
                        "element": "O",
                        "occu": 1
                    }
                ],
                "abc": [
                    0.87541975,
                    0.64415546,
                    0.39240941
                ],
                "xyz": [
                    3.96309576153514,
                    4.611359822592565,
                    2.6076048096400797
                ],
                "label": "O",
                "properties": {}
            },
            {
                "species": [
                    {
                        "element": "O",
                        "occu": 1
                    }
                ],
                "abc": [
                    0.12458025,
                    0.14415546,
                    0.10759059
                ],
                "xyz": [
                    0.30764947846486057,
                    1.0319755675925646,
                    0.7150467653599203
                ],
                "label": "O",
                "properties": {}
            }
        ]
    },
    "spacegroup": {
        "source": "spglib",
        "symbol": "P2_1/c",
        "number": 14,
        "point_group": "2/m",
        "crystal_system": "monoclinic",
        "hall": "-P 2ybc"
    },
    "dielectric": {
        "epsilon_ionic": [
            [
                17.43658757,
                -1e-08,
                -5.92378514
            ],
            [
                -1e-08,
                23.04828447,
                -1e-08
            ],
            [
                -5.92378514,
                -1e-08,
                37.09918675
            ]
        ],
        "epsilon_ionic_avg": 25.861352930000006,
        "epsilon_ionic_eig": [
            38.74593934724933,
            15.789834972750677,
            23.048284470000002
        ],
        "epsilon_electronic": [
            [
                5.27710498,
                0.0,
                -0.02676438
            ],
            [
                0.0,
                5.03533301,
                0.0
            ],
            [
                -0.02675845,
                0.0,
                4.97481067
            ]
        ],
        "epsilon_electronic_avg": 5.0957495533333335,
        "epsilon_electronic_eig": [
            5.2794558242983785,
            4.9724598257016215,
            5.03533301
        ]
    },
    "phonon": {
        "lowest_freq": -0.05026405197217213,
        "frequency": [
            -0.05026405197217213,
            -0.03974769742041666,
            -0.011377966471111308,
            1.7040887785168233,
            1.8471723318916717,
            2.0570890209953796,
            2.0774392581984817,
            2.2205448442236606,
            2.251709488117006,
            2.3117555763069166,
            2.6747404868629645,
            2.7926836678187725,
            2.8056526683436913,
            3.275138711575928,
            3.375711748190899,
            3.7276533908241216,
            3.777530280357365,
            3.896987347770277,
            3.950380124847466,
            4.370245576381305,
            4.375108749115895,
            4.491894540957024,
            4.729707731286223,
            4.825580020408273,
            4.866790553055569,
            4.910791991243434,
            5.542186055651934,
            5.643663227076317,
            5.73541754592416,
            5.809062990644755,
            6.236766201400006,
            6.436448620018237,
            6.48771249699067,
            7.353241347240773,
            7.363019554051928,
            8.066328044746411,
            8.160902039034337,
            9.311046906975799,
            9.338669312194284,
            9.38830623846353,
            9.499969035871942,
            10.012953594099452,
            10.122630684458267,
            10.937110715212365,
            10.979256430446979,
            11.067637561020392,
            11.373983885367865,
            11.574658540406457,
            11.814147513920252,
            11.938625559845528,
            12.195070112591901,
            12.663538873128978,
            12.852082160576066,
            13.241945550554943,
            13.639129594088695,
            13.808055533535125,
            21.57219312683416,
            21.777233847508253,
            22.378600297160293,
            22.79559390701675,
            22.853245589211202,
            22.94136487419139,
            23.146516900715447,
            23.438122432650598,
            23.80685400147816,
            23.84101430767899,
            23.911422775881064,
            24.233935147157464,
            24.241588330473117,
            24.36941686059733,
            24.379395096333617,
            24.530816687050102
        ]
    },
    "born_effective_charge": {
        "avg_abs_trace": 2.9874513888888887,
        "tensors": [
            [
                [
                    4.88791,
                    0.3436,
                    -0.12843
                ],
                [
                    0.1372,
                    5.17635,
                    0.14394
                ],
                [
                    -0.15406,
                    0.03562,
                    5.4855
                ]
            ],
            [
                [
                    4.88789,
                    -0.34358,
                    -0.12847
                ],
                [
                    -0.1372,
                    5.17635,
                    -0.14394
                ],
                [
                    -0.15409,
                    -0.03579,
                    5.48552
                ]
            ],
            [
                [
                    4.88789,
                    0.34358,
                    -0.12847
                ],
                [
                    0.13666,
                    5.17632,
                    0.14438
                ],
                [
                    -0.15409,
                    0.03579,
                    5.48552
                ]
            ],
            [
                [
                    4.88791,
                    -0.3436,
                    -0.12843
                ],
                [
                    -0.13666,
                    5.17632,
                    -0.14438
                ],
                [
                    -0.15406,
                    -0.03562,
                    5.4855
                ]
            ],
            [
                [
                    4.65484,
                    -0.1474,
                    -0.04978
                ],
                [
                    0.13512,
                    3.61027,
                    0.02781
                ],
                [
                    -0.02277,
                    0.07175,
                    3.07219
                ]
            ],
            [
                [
                    4.65492,
                    0.14734,
                    -0.04983
                ],
                [
                    -0.13512,
                    3.61027,
                    -0.02781
                ],
                [
                    -0.02295,
                    -0.07162,
                    3.07222
                ]
            ],
            [
                [
                    4.65492,
                    -0.14734,
                    -0.04983
                ],
                [
                    0.13565,
                    3.61019,
                    0.02791
                ],
                [
                    -0.02295,
                    0.07162,
                    3.07222
                ]
            ],
            [
                [
                    4.65484,
                    0.1474,
                    -0.04978
                ],
                [
                    -0.13565,
                    3.61019,
                    -0.02791
                ],
                [
                    -0.02277,
                    -0.07175,
                    3.07219
                ]
            ],
            [
                [
                    -2.431,
                    -0.09457,
                    0.10757
                ],
                [
                    -0.13421,
                    -1.36876,
                    0.81809
                ],
                [
                    -0.06645,
                    0.69348,
                    -2.61423
                ]
            ],
            [
                [
                    -2.43094,
                    0.09455,
                    0.10755
                ],
                [
                    0.13421,
                    -1.36876,
                    -0.81809
                ],
                [
                    -0.06675,
                    -0.69343,
                    -2.61417
                ]
            ],
            [
                [
                    -2.43094,
                    -0.09455,
                    0.10755
                ],
                [
                    -0.13435,
                    -1.36895,
                    0.81781
                ],
                [
                    -0.06675,
                    0.69343,
                    -2.61417
                ]
            ],
            [
                [
                    -2.431,
                    0.09457,
                    0.10757
                ],
                [
                    0.13435,
                    -1.36895,
                    -0.81781
                ],
                [
                    -0.06645,
                    -0.69348,
                    -2.61423
                ]
            ],
            [
                [
                    -2.7006,
                    -0.22145,
                    0.27014
                ],
                [
                    -0.35894,
                    -1.77136,
                    0.92093
                ],
                [
                    0.27448,
                    0.78007,
                    -2.61564
                ]
            ],
            [
                [
                    -2.7008,
                    0.22135,
                    0.27017
                ],
                [
                    0.35894,
                    -1.77136,
                    -0.92093
                ],
                [
                    0.27446,
                    -0.78003,
                    -2.61552
                ]
            ],
            [
                [
                    -2.7008,
                    -0.22135,
                    0.27017
                ],
                [
                    -0.3591,
                    -1.77125,
                    0.92053
                ],
                [
                    0.27446,
                    0.78003,
                    -2.61552
                ]
            ],
            [
                [
                    -2.7006,
                    0.22145,
                    0.27014
                ],
                [
                    0.3591,
                    -1.77125,
                    -0.92053
                ],
                [
                    0.27448,
                    -0.78007,
                    -2.61564
                ]
            ],
            [
                [
                    -2.80214,
                    -0.22671,
                    0.05528
                ],
                [
                    -0.40505,
                    -2.58091,
                    0.13969
                ],
                [
                    0.05137,
                    0.27237,
                    -0.98421
                ]
            ],
            [
                [
                    -2.80208,
                    0.22674,
                    0.05537
                ],
                [
                    0.40505,
                    -2.58091,
                    -0.13969
                ],
                [
                    0.05125,
                    -0.27235,
                    -0.9843
                ]
            ],
            [
                [
                    -2.80208,
                    -0.22674,
                    0.05537
                ],
                [
                    -0.40511,
                    -2.58129,
                    0.13935
                ],
                [
                    0.05125,
                    0.27235,
                    -0.9843
                ]
            ],
            [
                [
                    -2.80214,
                    0.22671,
                    0.05528
                ],
                [
                    0.40511,
                    -2.58129,
                    -0.13935
                ],
                [
                    0.05137,
                    -0.27237,
                    -0.98421
                ]
            ],
            [
                [
                    -1.60897,
                    0.58371,
                    -0.25476
                ],
                [
                    0.60841,
                    -3.06526,
                    0.0159
                ],
                [
                    -0.08228,
                    -0.2796,
                    -2.34359
                ]
            ],
            [
                [
                    -1.60902,
                    -0.58379,
                    -0.2548
                ],
                [
                    -0.60841,
                    -3.06526,
                    -0.0159
                ],
                [
                    -0.0822,
                    0.27962,
                    -2.34379
                ]
            ],
            [
                [
                    -1.60902,
                    0.58379,
                    -0.2548
                ],
                [
                    0.60798,
                    -3.06535,
                    0.01675
                ],
                [
                    -0.0822,
                    -0.27962,
                    -2.34379
                ]
            ],
            [
                [
                    -1.60897,
                    -0.58371,
                    -0.25476
                ],
                [
                    -0.60798,
                    -3.06535,
                    -0.01675
                ],
                [
                    -0.08228,
                    0.2796,
                    -2.34359
                ]
            ]
        ]
    },
    "band_gap": 3.2499,
    "is_direct": false,
    "formula": "BiAsO4"
}