{
    "mp_id": "mp-22526",
    "nelements": 3,
    "nsites": 4,
    "elements": [
        "Co",
        "Li",
        "O"
    ],
    "structure": {
        "@module": "pymatgen.core.structure",
        "@class": "Structure",
        "charge": null,
        "lattice": {
            "matrix": [
                [
                    1.39835562,
                    0.80734119,
                    4.64373842
                ],
                [
                    -1.39835562,
                    0.80734119,
                    4.64373842
                ],
                [
                    0.0,
                    -1.61468139,
                    4.64373842
                ]
            ],
            "a": 4.916452455830352,
            "b": 4.916452455830352,
            "c": 4.9164522274294935,
            "alpha": 33.04880400019498,
            "beta": 33.04880400019498,
            "gamma": 33.04880743081922,
            "volume": 31.455280594040484
        },
        "sites": [
            {
                "species": [
                    {
                        "element": "Li",
                        "occu": 1
                    }
                ],
                "abc": [
                    0.5,
                    0.5,
                    0.5
                ],
                "xyz": [
                    0.0,
                    4.94999999989254e-07,
                    6.96560763
                ],
                "label": "Li",
                "properties": {}
            },
            {
                "species": [
                    {
                        "element": "Co",
                        "occu": 1
                    }
                ],
                "abc": [
                    0.0,
                    0.0,
                    0.0
                ],
                "xyz": [
                    0.0,
                    0.0,
                    0.0
                ],
                "label": "Co",
                "properties": {}
            },
            {
                "species": [
                    {
                        "element": "O",
                        "occu": 1
                    }
                ],
                "abc": [
                    0.26061841,
                    0.26061841,
                    0.26061841
                ],
                "xyz": [
                    0.0,
                    2.580122259177031e-07,
                    3.630731170428937
                ],
                "label": "O",
                "properties": {}
            },
            {
                "species": [
                    {
                        "element": "O",
                        "occu": 1
                    }
                ],
                "abc": [
                    0.73938159,
                    0.73938159,
                    0.73938159
                ],
                "xyz": [
                    0.0,
                    7.319877739497826e-07,
                    10.300484089571064
                ],
                "label": "O",
                "properties": {}
            }
        ]
    },
    "spacegroup": {
        "source": "spglib",
        "symbol": "R-3m",
        "number": 166,
        "point_group": "-3m",
        "crystal_system": "trigonal",
        "hall": "-R 3 2\""
    },
    "dielectric": {
        "epsilon_ionic": [
            [
                7.52683404,
                0.0,
                -2e-08
            ],
            [
                0.0,
                7.52718845,
                6e-08
            ],
            [
                -2e-08,
                6e-08,
                5.68097114
            ]
        ],
        "epsilon_ionic_avg": 6.911664543333333,
        "epsilon_ionic_eig": [
            7.526834039999997,
            5.68097114,
            7.5271884500000015
        ],
        "epsilon_electronic": [
            [
                7.21834079,
                0.0,
                -0.0
            ],
            [
                0.0,
                7.21833698,
                -0.0
            ],
            [
                0.0,
                0.0,
                4.01268022
            ]
        ],
        "epsilon_electronic_avg": 6.149785996666666,
        "epsilon_electronic_eig": [
            7.21834079,
            7.21833698,
            4.01268022
        ]
    },
    "phonon": {
        "lowest_freq": -0.023067326738292766,
        "frequency": [
            -0.023067326738292766,
            -0.005124439273260106,
            -0.00512443791400804,
            7.51360495051428,
            7.513606934702449,
            12.0846212897633,
            14.727290270434013,
            14.727294153675405,
            16.65252658602533,
            16.65253098896259,
            17.654380623420547,
            17.670846271681036
        ]
    },
    "born_effective_charge": {
        "avg_abs_trace": 1.7495483333333333,
        "tensors": [
            [
                [
                    1.15,
                    0.0,
                    0.0
                ],
                [
                    0.0,
                    1.15004,
                    -0.0
                ],
                [
                    -0.0,
                    0.0,
                    1.70325
                ]
            ],
            [
                [
                    2.82182,
                    0.0,
                    0.0
                ],
                [
                    0.0,
                    2.82184,
                    0.0
                ],
                [
                    0.0,
                    0.0,
                    0.85034
                ]
            ],
            [
                [
                    -1.98591,
                    -0.00026,
                    -0.00035
                ],
                [
                    0.0,
                    -1.98597,
                    3e-05
                ],
                [
                    0.0,
                    -0.0,
                    -1.27672
                ]
            ],
            [
                [
                    -1.98591,
                    0.00026,
                    0.00035
                ],
                [
                    0.0,
                    -1.98591,
                    -3e-05
                ],
                [
                    0.0,
                    0.0,
                    -1.27687
                ]
            ]
        ]
    },
    "band_gap": 2.0907,
    "is_direct": false,
    "formula": "LiCoO2"
}