{
    "mp_id": "mp-20727",
    "nelements": 3,
    "nsites": 9,
    "elements": [
        "O",
        "Pb",
        "Sb"
    ],
    "structure": {
        "@module": "pymatgen.core.structure",
        "@class": "Structure",
        "charge": null,
        "lattice": {
            "matrix": [
                [
                    5.33134296,
                    0.0,
                    0.0
                ],
                [
                    -2.66567098,
                    4.61707854,
                    0.0
                ],
                [
                    0.0,
                    0.0,
                    5.33358494
                ]
            ],
            "a": 5.33134296,
            "b": 5.331342796907988,
            "c": 5.33358494,
            "alpha": 90.0,
            "beta": 90.0,
            "gamma": 119.99999480718202,
            "volume": 131.28741559573976
        },
        "sites": [
            {
                "species": [
                    {
                        "element": "Sb",
                        "occu": 1
                    }
                ],
                "abc": [
                    0.666667,
                    0.333333,
                    0.5
                ],
                "xyz": [
                    2.66567431233798,
                    1.5390246409738197,
                    2.66679247
                ],
                "label": "Sb",
                "properties": {}
            },
            {
                "species": [
                    {
                        "element": "Sb",
                        "occu": 1
                    }
                ],
                "abc": [
                    0.333333,
                    0.666667,
                    0.5
                ],
                "xyz": [
                    -2.3323379800821442e-06,
                    3.07805389902618,
                    2.66679247
                ],
                "label": "Sb",
                "properties": {}
            },
            {
                "species": [
                    {
                        "element": "Pb",
                        "occu": 1
                    }
                ],
                "abc": [
                    0.0,
                    0.0,
                    0.0
                ],
                "xyz": [
                    0.0,
                    0.0,
                    0.0
                ],
                "label": "Pb",
                "properties": {}
            },
            {
                "species": [
                    {
                        "element": "O",
                        "occu": 1
                    }
                ],
                "abc": [
                    0.37759636,
                    0.37759636,
                    0.70911987
                ],
                "xyz": [
                    1.0065480366019928,
                    1.7433920505381144,
                    3.7821510592867575
                ],
                "label": "O",
                "properties": {}
            },
            {
                "species": [
                    {
                        "element": "O",
                        "occu": 1
                    }
                ],
                "abc": [
                    0.62240364,
                    0.0,
                    0.70911987
                ],
                "xyz": [
                    3.3182472643923746,
                    0.0,
                    3.7821510592867575
                ],
                "label": "O",
                "properties": {}
            },
            {
                "species": [
                    {
                        "element": "O",
                        "occu": 1
                    }
                ],
                "abc": [
                    0.0,
                    0.62240364,
                    0.70911987
                ],
                "xyz": [
                    -1.6591233209943672,
                    2.8736864894618854,
                    3.7821510592867575
                ],
                "label": "O",
                "properties": {}
            },
            {
                "species": [
                    {
                        "element": "O",
                        "occu": 1
                    }
                ],
                "abc": [
                    0.37759636,
                    0.0,
                    0.29088013
                ],
                "xyz": [
                    2.0130956956076256,
                    0.0,
                    1.5514338807132422
                ],
                "label": "O",
                "properties": {}
            },
            {
                "species": [
                    {
                        "element": "O",
                        "occu": 1
                    }
                ],
                "abc": [
                    0.0,
                    0.37759636,
                    0.29088013
                ],
                "xyz": [
                    -1.0065476590056328,
                    1.7433920505381144,
                    1.5514338807132422
                ],
                "label": "O",
                "properties": {}
            },
            {
                "species": [
                    {
                        "element": "O",
                        "occu": 1
                    }
                ],
                "abc": [
                    0.62240364,
                    0.62240364,
                    0.29088013
                ],
                "xyz": [
                    1.6591239433980074,
                    2.8736864894618854,
                    1.5514338807132422
                ],
                "label": "O",
                "properties": {}
            }
        ]
    },
    "spacegroup": {
        "source": "spglib",
        "symbol": "P-31m",
        "number": 162,
        "point_group": "-3m",
        "crystal_system": "trigonal",
        "hall": "-P 3 2"
    },
    "dielectric": {
        "epsilon_ionic": [
            [
                10.04995623,
                1e-08,
                -8.766e-05
            ],
            [
                1e-08,
                10.05013567,
                1.4e-07
            ],
            [
                -8.766e-05,
                1.4e-07,
                12.0925554
            ]
        ],
        "epsilon_ionic_avg": 10.730882433333337,
        "epsilon_ionic_eig": [
            12.092555403762024,
            10.04995622623744,
            10.05013567000055
        ],
        "epsilon_electronic": [
            [
                4.56660073,
                4.9e-07,
                0.0
            ],
            [
                4.9e-07,
                4.56659979,
                -0.0
            ],
            [
                0.0,
                0.0,
                4.37047219
            ]
        ],
        "epsilon_electronic_avg": 4.501224236666666,
        "epsilon_electronic_eig": [
            4.566600938969808,
            4.566599581030192,
            4.37047219
        ]
    },
    "phonon": {
        "lowest_freq": -0.022129498426356975,
        "frequency": [
            -0.022129498426356975,
            -0.013806836351340071,
            -0.013806834280277824,
            2.4213057035424543,
            2.421306061869947,
            2.6021627656928117,
            4.171836002700213,
            5.944360239688747,
            5.944360548048413,
            6.925022539149103,
            8.372943571597117,
            8.422100857262706,
            8.422101365093502,
            9.105160294085412,
            9.10516146170956,
            14.097632664379097,
            14.097633227807322,
            14.908210375950118,
            14.908211482522125,
            15.809909772459946,
            15.873484103386481,
            15.873484873224168,
            17.479233597031968,
            18.79221230256415,
            18.99511259875844,
            18.99511266309081,
            19.141471340024026
        ]
    },
    "born_effective_charge": {
        "avg_abs_trace": 2.7959151851851853,
        "tensors": [
            [
                [
                    4.9948,
                    -2e-05,
                    3e-05
                ],
                [
                    0.0,
                    4.99487,
                    0.0
                ],
                [
                    -0.0,
                    0.0,
                    3.48522
                ]
            ],
            [
                [
                    4.9948,
                    2e-05,
                    3e-05
                ],
                [
                    0.0,
                    4.99467,
                    0.0
                ],
                [
                    -0.0,
                    -0.0,
                    3.48522
                ]
            ],
            [
                [
                    3.25538,
                    0.0,
                    -5e-05
                ],
                [
                    0.0,
                    3.25543,
                    0.0
                ],
                [
                    -0.0,
                    0.0,
                    4.28447
                ]
            ],
            [
                [
                    -2.29828,
                    0.15708,
                    0.4197
                ],
                [
                    0.15703,
                    -2.11662,
                    0.72678
                ],
                [
                    0.39323,
                    0.6811,
                    -1.87592
                ]
            ],
            [
                [
                    -2.02621,
                    0.0,
                    -0.8394
                ],
                [
                    -0.00027,
                    -2.38871,
                    -4e-05
                ],
                [
                    -0.78647,
                    -0.0,
                    -1.87592
                ]
            ],
            [
                [
                    -2.29828,
                    -0.15708,
                    0.4197
                ],
                [
                    -0.15685,
                    -2.11716,
                    -0.72709
                ],
                [
                    0.39323,
                    -0.6811,
                    -1.87592
                ]
            ],
            [
                [
                    -2.02629,
                    0.0,
                    -0.83938
                ],
                [
                    0.00027,
                    -2.38871,
                    4e-05
                ],
                [
                    -0.78557,
                    0.0,
                    -1.87571
                ]
            ],
            [
                [
                    -2.29796,
                    -0.15686,
                    0.41969
                ],
                [
                    -0.15703,
                    -2.11662,
                    -0.72678
                ],
                [
                    0.39278,
                    -0.68032,
                    -1.87571
                ]
            ],
            [
                [
                    -2.29796,
                    0.15686,
                    0.41969
                ],
                [
                    0.15685,
                    -2.11716,
                    0.72709
                ],
                [
                    0.39278,
                    0.68032,
                    -1.87571
                ]
            ]
        ]
    },
    "band_gap": 1.8610000000000007,
    "is_direct": false,
    "formula": "Sb2PbO6"
}