{
    "mp_id": "mp-29364",
    "nelements": 3,
    "nsites": 11,
    "elements": [
        "Li",
        "O",
        "Sb"
    ],
    "structure": {
        "@module": "pymatgen.core.structure",
        "@class": "Structure",
        "charge": null,
        "lattice": {
            "matrix": [
                [
                    4.84542141,
                    -2.01552597,
                    0.00029239
                ],
                [
                    4.84542141,
                    2.01552597,
                    0.00029239
                ],
                [
                    -1.88550823,
                    0.0,
                    5.49657685
                ]
            ],
            "a": 5.247899928706982,
            "b": 5.247899928706982,
            "c": 5.810980842624906,
            "alpha": 107.42971843630711,
            "beta": 107.42971843630711,
            "gamma": 45.17120702862311,
            "volume": 107.36216043255561
        },
        "sites": [
            {
                "species": [
                    {
                        "element": "Li",
                        "occu": 1
                    }
                ],
                "abc": [
                    0.28856027,
                    0.28856027,
                    0.65717611
                ],
                "xyz": [
                    1.5572812567023766,
                    0.0,
                    3.6123877368737443
                ],
                "label": "Li",
                "properties": {}
            },
            {
                "species": [
                    {
                        "element": "Li",
                        "occu": 1
                    }
                ],
                "abc": [
                    0.0,
                    0.0,
                    0.5
                ],
                "xyz": [
                    -0.942754115,
                    0.0,
                    2.748288425
                ],
                "label": "Li",
                "properties": {}
            },
            {
                "species": [
                    {
                        "element": "Li",
                        "occu": 1
                    }
                ],
                "abc": [
                    0.6884612,
                    0.6884612,
                    0.85981439
                ],
                "xyz": [
                    5.050582168251155,
                    0.0,
                    4.7264384697114075
                ],
                "label": "Li",
                "properties": {}
            },
            {
                "species": [
                    {
                        "element": "Li",
                        "occu": 1
                    }
                ],
                "abc": [
                    0.3115388,
                    0.3115388,
                    0.14018561
                ],
                "xyz": [
                    2.7547524217488455,
                    0.0,
                    0.7707231602885926
                ],
                "label": "Li",
                "properties": {}
            },
            {
                "species": [
                    {
                        "element": "Li",
                        "occu": 1
                    }
                ],
                "abc": [
                    0.71143973,
                    0.71143973,
                    0.34282389
                ],
                "xyz": [
                    6.248053333297625,
                    0.0,
                    1.884773893126256
                ],
                "label": "Li",
                "properties": {}
            },
            {
                "species": [
                    {
                        "element": "Sb",
                        "occu": 1
                    }
                ],
                "abc": [
                    0.0,
                    0.0,
                    0.0
                ],
                "xyz": [
                    0.0,
                    0.0,
                    0.0
                ],
                "label": "Sb",
                "properties": {}
            },
            {
                "species": [
                    {
                        "element": "O",
                        "occu": 1
                    }
                ],
                "abc": [
                    0.14500941,
                    0.14500941,
                    0.82577235
                ],
                "xyz": [
                    -0.15173716230050416,
                    0.0,
                    4.5390059809828776
                ],
                "label": "O",
                "properties": {}
            },
            {
                "species": [
                    {
                        "element": "O",
                        "occu": 1
                    }
                ],
                "abc": [
                    0.5,
                    0.5,
                    0.0
                ],
                "xyz": [
                    4.84542141,
                    0.0,
                    0.00029239
                ],
                "label": "O",
                "properties": {}
            },
            {
                "species": [
                    {
                        "element": "O",
                        "occu": 1
                    }
                ],
                "abc": [
                    0.84219639,
                    0.84219639,
                    0.6814536
                ],
                "xyz": [
                    6.876706467898292,
                    0.0,
                    3.746154581714104
                ],
                "label": "O",
                "properties": {}
            },
            {
                "species": [
                    {
                        "element": "O",
                        "occu": 1
                    }
                ],
                "abc": [
                    0.15780361,
                    0.15780361,
                    0.3185464
                ],
                "xyz": [
                    0.9286281221017084,
                    0.0,
                    1.751007048285896
                ],
                "label": "O",
                "properties": {}
            },
            {
                "species": [
                    {
                        "element": "O",
                        "occu": 1
                    }
                ],
                "abc": [
                    0.85499059,
                    0.85499059,
                    0.17422765
                ],
                "xyz": [
                    7.957071752300505,
                    0.0,
                    0.9581556490171228
                ],
                "label": "O",
                "properties": {}
            }
        ]
    },
    "spacegroup": {
        "source": "spglib",
        "symbol": "C2/m",
        "number": 12,
        "point_group": "2/m",
        "crystal_system": "monoclinic",
        "hall": "-C 2y"
    },
    "dielectric": {
        "epsilon_ionic": [
            [
                10.1857623,
                -0.0,
                0.70752754
            ],
            [
                -0.0,
                7.65575405,
                -0.0
            ],
            [
                0.70752754,
                -0.0,
                6.72923378
            ]
        ],
        "epsilon_ionic_avg": 8.190250043333334,
        "epsilon_ionic_eig": [
            10.324980990993609,
            6.590015089006391,
            7.65575405
        ],
        "epsilon_electronic": [
            [
                3.21082125,
                0.0,
                0.00544504
            ],
            [
                0.0,
                3.33597302,
                0.0
            ],
            [
                0.00544523,
                0.0,
                3.17711859
            ]
        ],
        "epsilon_electronic_avg": 3.2413042866666664,
        "epsilon_electronic_eig": [
            3.2116791497384187,
            3.1762606902615813,
            3.33597302
        ]
    },
    "phonon": {
        "lowest_freq": -0.02699800479155759,
        "frequency": [
            -0.02699800479155759,
            -0.016343502909694944,
            -0.010132126916643249,
            5.2456083659203845,
            6.338268280981,
            6.799248171636385,
            7.00516480851464,
            7.312834395260274,
            8.28181345260794,
            8.729350196805095,
            9.209289063206153,
            9.231895696457347,
            9.503132459271084,
            9.75743065741449,
            9.90991850861273,
            10.357812474399163,
            10.461525722585813,
            11.31360837344249,
            11.6245425883048,
            11.695163922138747,
            12.254860221150297,
            13.057076732448605,
            13.657413576249544,
            14.064126119114452,
            14.122930335991443,
            14.475321710306469,
            14.552011909531085,
            16.531299611920478,
            17.0252620576734,
            18.18087524202684,
            19.475069179140608,
            20.529429626115878,
            20.603078113103365
        ]
    },
    "born_effective_charge": {
        "avg_abs_trace": 1.7297187878787879,
        "tensors": [
            [
                [
                    1.0123,
                    0.0,
                    0.06398
                ],
                [
                    6e-05,
                    1.0003,
                    2e-05
                ],
                [
                    0.06909,
                    0.0,
                    1.22402
                ]
            ],
            [
                [
                    0.99733,
                    0.0,
                    -0.16453
                ],
                [
                    -0.0,
                    0.66904,
                    0.0
                ],
                [
                    -0.12601,
                    0.0,
                    1.35195
                ]
            ],
            [
                [
                    1.13639,
                    0.0,
                    -0.0103
                ],
                [
                    -3e-05,
                    1.05911,
                    -0.0
                ],
                [
                    -0.05413,
                    0.0,
                    0.73928
                ]
            ],
            [
                [
                    1.13637,
                    0.0,
                    -0.0103
                ],
                [
                    3e-05,
                    1.05911,
                    0.0
                ],
                [
                    -0.05407,
                    0.0,
                    0.73932
                ]
            ],
            [
                [
                    1.01236,
                    0.0,
                    0.06398
                ],
                [
                    -6e-05,
                    1.0003,
                    -2e-05
                ],
                [
                    0.06895,
                    0.0,
                    1.22396
                ]
            ],
            [
                [
                    4.11521,
                    0.0,
                    0.15018
                ],
                [
                    -0.0,
                    5.33668,
                    0.0
                ],
                [
                    0.11789,
                    0.0,
                    3.72734
                ]
            ],
            [
                [
                    -2.20099,
                    0.0,
                    0.28537
                ],
                [
                    4e-05,
                    -1.59366,
                    6e-05
                ],
                [
                    0.2938,
                    0.0,
                    -1.65968
                ]
            ],
            [
                [
                    -1.51382,
                    0.0,
                    -0.10348
                ],
                [
                    -0.0,
                    -3.71711,
                    0.0
                ],
                [
                    -0.07619,
                    0.0,
                    -1.15699
                ]
            ],
            [
                [
                    -1.74707,
                    0.0,
                    -0.28013
                ],
                [
                    -0.00012,
                    -1.61005,
                    4e-05
                ],
                [
                    -0.26645,
                    0.0,
                    -2.26472
                ]
            ],
            [
                [
                    -1.74704,
                    0.0,
                    -0.28014
                ],
                [
                    0.00012,
                    -1.61005,
                    -4e-05
                ],
                [
                    -0.2667,
                    0.0,
                    -2.26468
                ]
            ],
            [
                [
                    -2.20104,
                    0.0,
                    0.28539
                ],
                [
                    -4e-05,
                    -1.59366,
                    -6e-05
                ],
                [
                    0.29381,
                    0.0,
                    -1.65979
                ]
            ]
        ]
    },
    "band_gap": 3.0774999999999997,
    "is_direct": false,
    "formula": "Li5SbO5"
}