{
    "mp_id": "mp-23054",
    "nelements": 3,
    "nsites": 10,
    "elements": [
        "Bi",
        "Na",
        "O"
    ],
    "structure": {
        "@module": "pymatgen.core.structure",
        "@class": "Structure",
        "charge": null,
        "lattice": {
            "matrix": [
                [
                    2.80340896,
                    1.61854944,
                    5.27329862
                ],
                [
                    -2.80340898,
                    1.61854941,
                    5.27329862
                ],
                [
                    2e-08,
                    -3.23709885,
                    5.27329862
                ]
            ],
            "a": 6.187607164520587,
            "b": 6.187607165734578,
            "c": 6.1876075586906145,
            "alpha": 53.881446098163245,
            "beta": 53.88144606212855,
            "gamma": 53.88143439807676,
            "volume": 143.56416203302018
        },
        "sites": [
            {
                "species": [
                    {
                        "element": "Na",
                        "occu": 1
                    }
                ],
                "abc": [
                    0.13812988,
                    0.13812988,
                    0.13812988
                ],
                "xyz": [
                    4.870465916491829e-18,
                    -5.551115123125783e-17,
                    2.185200316754297
                ],
                "label": "Na",
                "properties": {}
            },
            {
                "species": [
                    {
                        "element": "Na",
                        "occu": 1
                    }
                ],
                "abc": [
                    0.86187012,
                    0.86187012,
                    0.86187012
                ],
                "xyz": [
                    2.2770125638291804e-16,
                    0.0,
                    13.634695543245705
                ],
                "label": "Na",
                "properties": {}
            },
            {
                "species": [
                    {
                        "element": "Bi",
                        "occu": 1
                    }
                ],
                "abc": [
                    0.34365661,
                    0.34365661,
                    0.34365661
                ],
                "xyz": [
                    2.548809074970569e-17,
                    -2.220446049250313e-16,
                    5.436611781800634
                ],
                "label": "Bi",
                "properties": {}
            },
            {
                "species": [
                    {
                        "element": "Bi",
                        "occu": 1
                    }
                ],
                "abc": [
                    0.65634339,
                    0.65634339,
                    0.65634339
                ],
                "xyz": [
                    -1.4960974202507746e-17,
                    0.0,
                    10.383284078199365
                ],
                "label": "Bi",
                "properties": {}
            },
            {
                "species": [
                    {
                        "element": "O",
                        "occu": 1
                    }
                ],
                "abc": [
                    0.05742097,
                    0.70854429,
                    0.46256005
                ],
                "xyz": [
                    -1.825364954272632,
                    -0.2575999845348169,
                    6.478380821858073
                ],
                "label": "O",
                "properties": {}
            },
            {
                "species": [
                    {
                        "element": "O",
                        "occu": 1
                    }
                ],
                "abc": [
                    0.70854429,
                    0.46256005,
                    0.05742097
                ],
                "xyz": [
                    0.6895944143320087,
                    1.7096129038588834,
                    6.478380821858072
                ],
                "label": "O",
                "properties": {}
            },
            {
                "species": [
                    {
                        "element": "O",
                        "occu": 1
                    }
                ],
                "abc": [
                    0.46256005,
                    0.05742097,
                    0.70854429
                ],
                "xyz": [
                    1.1357705399406233,
                    -1.452012919324067,
                    6.478380821858073
                ],
                "label": "O",
                "properties": {}
            },
            {
                "species": [
                    {
                        "element": "O",
                        "occu": 1
                    }
                ],
                "abc": [
                    0.94257903,
                    0.29145571,
                    0.53743995
                ],
                "xyz": [
                    1.8253649542726322,
                    0.2575999845348165,
                    9.341515038141928
                ],
                "label": "O",
                "properties": {}
            },
            {
                "species": [
                    {
                        "element": "O",
                        "occu": 1
                    }
                ],
                "abc": [
                    0.53743995,
                    0.94257903,
                    0.29145571
                ],
                "xyz": [
                    -1.1357705399406228,
                    1.4520129193240665,
                    9.341515038141928
                ],
                "label": "O",
                "properties": {}
            },
            {
                "species": [
                    {
                        "element": "O",
                        "occu": 1
                    }
                ],
                "abc": [
                    0.29145571,
                    0.53743995,
                    0.94257903
                ],
                "xyz": [
                    -0.6895944143320089,
                    -1.7096129038588839,
                    9.341515038141928
                ],
                "label": "O",
                "properties": {}
            }
        ]
    },
    "spacegroup": {
        "source": "spglib",
        "symbol": "R-3",
        "number": 148,
        "point_group": "-3",
        "crystal_system": "trigonal",
        "hall": "-R 3"
    },
    "dielectric": {
        "epsilon_ionic": [
            [
                6.50641067,
                1.33e-06,
                1.41e-06
            ],
            [
                1.33e-06,
                6.50641051,
                8.08e-06
            ],
            [
                1.41e-06,
                8.08e-06,
                3.68414913
            ]
        ],
        "epsilon_ionic_avg": 5.565656770000005,
        "epsilon_ionic_eig": [
            3.6841491299761664,
            6.506411922419126,
            6.506409257604722
        ],
        "epsilon_electronic": [
            [
                4.95803044,
                -8.39e-06,
                0.0
            ],
            [
                8.39e-06,
                4.95803081,
                0.0
            ],
            [
                0.0,
                -0.0,
                3.3376597
            ]
        ],
        "epsilon_electronic_avg": 4.417906983333333,
        "epsilon_electronic_eig": [
            4.958030625,
            4.958030625,
            3.3376597
        ]
    },
    "phonon": {
        "lowest_freq": -0.06079412282679144,
        "frequency": [
            -0.06079412282679144,
            -0.060794120615721224,
            -0.009851344178238425,
            2.9146550021568745,
            4.910171123985577,
            4.910171300684195,
            5.103559164200052,
            5.286024857745463,
            5.286024973333327,
            5.461434144732369,
            5.62205007798054,
            5.6220501866598145,
            6.430290056095758,
            6.430290132111032,
            7.127222518964307,
            7.521422391888116,
            7.582193518630743,
            7.582193663681193,
            12.55293728283175,
            12.5529374872621,
            12.854918749763046,
            12.854918930378828,
            14.443797570052027,
            14.604520121783812,
            14.604520171987474,
            14.762534950709625,
            16.43810520172103,
            16.43810527606054,
            16.50934293583404,
            16.59114894180238
        ]
    },
    "born_effective_charge": {
        "avg_abs_trace": 2.145706666666667,
        "tensors": [
            [
                [
                    1.05762,
                    -0.04931,
                    -0.0
                ],
                [
                    0.04931,
                    1.05762,
                    0.0
                ],
                [
                    0.0,
                    0.0,
                    1.40842
                ]
            ],
            [
                [
                    1.05763,
                    -0.04931,
                    -0.0
                ],
                [
                    0.04931,
                    1.05763,
                    0.0
                ],
                [
                    0.0,
                    0.0,
                    1.40841
                ]
            ],
            [
                [
                    5.15463,
                    -0.03539,
                    1e-05
                ],
                [
                    0.03539,
                    5.15462,
                    1e-05
                ],
                [
                    0.0,
                    0.0,
                    2.25984
                ]
            ],
            [
                [
                    5.15465,
                    -0.03534,
                    1e-05
                ],
                [
                    0.03534,
                    5.15467,
                    -0.0
                ],
                [
                    0.0,
                    0.0,
                    2.25984
                ]
            ],
            [
                [
                    -1.41869,
                    -0.03227,
                    0.00189
                ],
                [
                    -0.08875,
                    -2.72282,
                    0.06786
                ],
                [
                    0.20762,
                    -0.03646,
                    -1.22276
                ]
            ],
            [
                [
                    -2.44919,
                    -0.50621,
                    -0.05974
                ],
                [
                    -0.56269,
                    -1.69231,
                    -0.03229
                ],
                [
                    -0.07224,
                    0.19804,
                    -1.22276
                ]
            ],
            [
                [
                    -2.34438,
                    0.62317,
                    0.05783
                ],
                [
                    0.56673,
                    -1.79711,
                    -0.03558
                ],
                [
                    -0.13539,
                    -0.16158,
                    -1.22276
                ]
            ],
            [
                [
                    -1.41873,
                    -0.0323,
                    0.00183
                ],
                [
                    -0.08874,
                    -2.7228,
                    0.06785
                ],
                [
                    0.20762,
                    -0.0365,
                    -1.22275
                ]
            ],
            [
                [
                    -2.34435,
                    0.62317,
                    0.05783
                ],
                [
                    0.5667,
                    -1.79717,
                    -0.03549
                ],
                [
                    -0.13542,
                    -0.16156,
                    -1.22275
                ]
            ],
            [
                [
                    -2.44921,
                    -0.5062,
                    -0.05965
                ],
                [
                    -0.56262,
                    -1.69233,
                    -0.03234
                ],
                [
                    -0.0722,
                    0.19805,
                    -1.22275
                ]
            ]
        ]
    },
    "band_gap": 1.2086,
    "is_direct": false,
    "formula": "NaBiO3"
}