{
    "mp_id": "mp-28456",
    "nelements": 3,
    "nsites": 32,
    "elements": [
        "O",
        "Os",
        "Sn"
    ],
    "structure": {
        "@module": "pymatgen.core.structure",
        "@class": "Structure",
        "charge": null,
        "lattice": {
            "matrix": [
                [
                    6.21622544,
                    -3.55273902,
                    -0.00010429
                ],
                [
                    6.21622544,
                    3.55273902,
                    -0.00010429
                ],
                [
                    -4.10255604,
                    0.0,
                    12.25316654
                ]
            ],
            "a": 7.159847294182339,
            "b": 7.159847294182339,
            "c": 12.92172807012731,
            "alpha": 106.00153625587009,
            "beta": 106.00153625587009,
            "gamma": 59.49824189473241,
            "volume": 541.2101771953824
        },
        "sites": [
            {
                "species": [
                    {
                        "element": "Sn",
                        "occu": 1
                    }
                ],
                "abc": [
                    0.32907121,
                    0.85336816,
                    0.91142385
                ],
                "xyz": [
                    3.611142272234019,
                    1.8626902323319892,
                    11.167704905976082
                ],
                "label": "Sn",
                "properties": {}
            },
            {
                "species": [
                    {
                        "element": "Sn",
                        "occu": 1
                    }
                ],
                "abc": [
                    0.42248757,
                    0.9053384,
                    0.65355424
                ],
                "xyz": [
                    5.572822679827068,
                    1.7154429845803867,
                    8.007970466672719
                ],
                "label": "Sn",
                "properties": {}
            },
            {
                "species": [
                    {
                        "element": "Sn",
                        "occu": 1
                    }
                ],
                "abc": [
                    0.9053384,
                    0.42248757,
                    0.65355424
                ],
                "xyz": [
                    5.572822679827068,
                    -1.7154429845803867,
                    8.007970466672719
                ],
                "label": "Sn",
                "properties": {}
            },
            {
                "species": [
                    {
                        "element": "Sn",
                        "occu": 1
                    }
                ],
                "abc": [
                    0.98475148,
                    0.98475148,
                    0.37932382
                ],
                "xyz": [
                    10.68667717525043,
                    0.0,
                    4.647712539585284
                ],
                "label": "Sn",
                "properties": {}
            },
            {
                "species": [
                    {
                        "element": "Sn",
                        "occu": 1
                    }
                ],
                "abc": [
                    0.09034255,
                    0.57021567,
                    0.16162004
                ],
                "xyz": [
                    3.4431235404780747,
                    1.7048639580731426,
                    1.980288376704698
                ],
                "label": "Sn",
                "properties": {}
            },
            {
                "species": [
                    {
                        "element": "Sn",
                        "occu": 1
                    }
                ],
                "abc": [
                    0.57021567,
                    0.09034255,
                    0.16162004
                ],
                "xyz": [
                    3.4431235404780747,
                    -1.7048639580731426,
                    1.980288376704698
                ],
                "label": "Sn",
                "properties": {}
            },
            {
                "species": [
                    {
                        "element": "Sn",
                        "occu": 1
                    }
                ],
                "abc": [
                    0.84938441,
                    0.84938441,
                    0.92047729
                ],
                "xyz": [
                    6.7836202897904485,
                    0.0,
                    11.27858436605764
                ],
                "label": "Sn",
                "properties": {}
            },
            {
                "species": [
                    {
                        "element": "Sn",
                        "occu": 1
                    }
                ],
                "abc": [
                    0.5599463,
                    0.5599463,
                    0.13094691
                ],
                "xyz": [
                    6.424287833647908,
                    0.0,
                    1.6043975025291373
                ],
                "label": "Sn",
                "properties": {}
            },
            {
                "species": [
                    {
                        "element": "Sn",
                        "occu": 1
                    }
                ],
                "abc": [
                    0.905035,
                    0.905035,
                    0.65960527
                ],
                "xyz": [
                    8.545735597726468,
                    0.0,
                    8.082064451771366
                ],
                "label": "Sn",
                "properties": {}
            },
            {
                "species": [
                    {
                        "element": "Sn",
                        "occu": 1
                    }
                ],
                "abc": [
                    0.99685782,
                    0.51038464,
                    0.42471975
                ],
                "xyz": [
                    7.626922348430392,
                    -1.728312248769484,
                    5.2040046392610115
                ],
                "label": "Sn",
                "properties": {}
            },
            {
                "species": [
                    {
                        "element": "Sn",
                        "occu": 1
                    }
                ],
                "abc": [
                    0.51038464,
                    0.99685782,
                    0.42471975
                ],
                "xyz": [
                    7.626922348430392,
                    1.728312248769484,
                    5.2040046392610115
                ],
                "label": "Sn",
                "properties": {}
            },
            {
                "species": [
                    {
                        "element": "Sn",
                        "occu": 1
                    }
                ],
                "abc": [
                    0.51270531,
                    0.51270531,
                    0.41919316
                ],
                "xyz": [
                    4.6544201520054855,
                    0.0,
                    5.136336661835307
                ],
                "label": "Sn",
                "properties": {}
            },
            {
                "species": [
                    {
                        "element": "Sn",
                        "occu": 1
                    }
                ],
                "abc": [
                    0.09847509,
                    0.09847509,
                    0.17839151
                ],
                "xyz": [
                    0.49242555249335873,
                    0.0,
                    2.1858403414178036
                ],
                "label": "Sn",
                "properties": {}
            },
            {
                "species": [
                    {
                        "element": "Sn",
                        "occu": 1
                    }
                ],
                "abc": [
                    0.85336816,
                    0.32907121,
                    0.91142385
                ],
                "xyz": [
                    3.611142272234019,
                    -1.8626902323319892,
                    11.167704905976082
                ],
                "label": "Sn",
                "properties": {}
            },
            {
                "species": [
                    {
                        "element": "Sn",
                        "occu": 1
                    }
                ],
                "abc": [
                    0.32006342,
                    0.32006342,
                    0.88913909
                ],
                "xyz": [
                    0.3314298035552059,
                    0.0,
                    10.894702588165906
                ],
                "label": "Sn",
                "properties": {}
            },
            {
                "species": [
                    {
                        "element": "Os",
                        "occu": 1
                    }
                ],
                "abc": [
                    0.7110845,
                    0.7110845,
                    0.03511814
                ],
                "xyz": [
                    8.696448980408793,
                    0.0,
                    0.43016009999002564
                ],
                "label": "Os",
                "properties": {}
            },
            {
                "species": [
                    {
                        "element": "Os",
                        "occu": 1
                    }
                ],
                "abc": [
                    0.11564241,
                    0.11564241,
                    0.768697
                ],
                "xyz": [
                    -1.7159039383100587,
                    0.0,
                    9.418948239104502
                ],
                "label": "Os",
                "properties": {}
            },
            {
                "species": [
                    {
                        "element": "Os",
                        "occu": 1
                    }
                ],
                "abc": [
                    0.30255004,
                    0.30255004,
                    0.30567662
                ],
                "xyz": [
                    2.5073830473742507,
                    0.0,
                    3.745443426356952
                ],
                "label": "Os",
                "properties": {}
            },
            {
                "species": [
                    {
                        "element": "O",
                        "occu": 1
                    }
                ],
                "abc": [
                    0.77437731,
                    0.77437731,
                    0.74723025
                ],
                "xyz": [
                    6.561853893753322,
                    0.0,
                    9.155775177356515
                ],
                "label": "O",
                "properties": {}
            },
            {
                "species": [
                    {
                        "element": "O",
                        "occu": 1
                    }
                ],
                "abc": [
                    0.76481419,
                    0.25606698,
                    0.18612587
                ],
                "xyz": [
                    5.58243568800221,
                    -1.807446064283134,
                    2.2805248148151707
                ],
                "label": "O",
                "properties": {}
            },
            {
                "species": [
                    {
                        "element": "O",
                        "occu": 1
                    }
                ],
                "abc": [
                    0.25606698,
                    0.76481419,
                    0.18612587
                ],
                "xyz": [
                    5.58243568800221,
                    1.807446064283134,
                    2.2805248148151707
                ],
                "label": "O",
                "properties": {}
            },
            {
                "species": [
                    {
                        "element": "O",
                        "occu": 1
                    }
                ],
                "abc": [
                    0.02635638,
                    0.57354984,
                    0.59357264
                ],
                "xyz": [
                    1.293987286967491,
                    1.944035556830809,
                    7.273081847287782
                ],
                "label": "O",
                "properties": {}
            },
            {
                "species": [
                    {
                        "element": "O",
                        "occu": 1
                    }
                ],
                "abc": [
                    0.57354984,
                    0.02635638,
                    0.59357264
                ],
                "xyz": [
                    1.293987286967491,
                    -1.944035556830809,
                    7.273081847287782
                ],
                "label": "O",
                "properties": {}
            },
            {
                "species": [
                    {
                        "element": "O",
                        "occu": 1
                    }
                ],
                "abc": [
                    0.65502906,
                    0.65502906,
                    0.3630697
                ],
                "xyz": [
                    6.6541028227465855,
                    0.0,
                    4.448616873766503
                ],
                "label": "O",
                "properties": {}
            },
            {
                "species": [
                    {
                        "element": "O",
                        "occu": 1
                    }
                ],
                "abc": [
                    0.57482495,
                    0.57482495,
                    0.58905608
                ],
                "xyz": [
                    4.729847376570733,
                    0.0,
                    7.217682352651492
                ],
                "label": "O",
                "properties": {}
            },
            {
                "species": [
                    {
                        "element": "O",
                        "occu": 1
                    }
                ],
                "abc": [
                    0.37648806,
                    0.37648806,
                    0.05950134
                ],
                "xyz": [
                    4.436561731051399,
                    0.0,
                    0.7290013004936089
                ],
                "label": "O",
                "properties": {}
            },
            {
                "species": [
                    {
                        "element": "O",
                        "occu": 1
                    }
                ],
                "abc": [
                    0.87637423,
                    0.87637423,
                    0.47407234
                ],
                "xyz": [
                    8.95057122510889,
                    0.0,
                    5.80870453989061
                ],
                "label": "O",
                "properties": {}
            },
            {
                "species": [
                    {
                        "element": "O",
                        "occu": 1
                    }
                ],
                "abc": [
                    0.04144833,
                    0.04144833,
                    0.00925685
                ],
                "xyz": [
                    0.4773275809041564,
                    0.0,
                    0.1134170793931276
                ],
                "label": "O",
                "properties": {}
            },
            {
                "species": [
                    {
                        "element": "O",
                        "occu": 1
                    }
                ],
                "abc": [
                    0.30700601,
                    0.87649945,
                    0.46657891
                ],
                "xyz": [
                    5.442770623473785,
                    2.0232615659220285,
                    5.716945660497249
                ],
                "label": "O",
                "properties": {}
            },
            {
                "species": [
                    {
                        "element": "O",
                        "occu": 1
                    }
                ],
                "abc": [
                    0.87649945,
                    0.30700601,
                    0.46657891
                ],
                "xyz": [
                    5.442770623473785,
                    -2.0232615659220285,
                    5.716945660497249
                ],
                "label": "O",
                "properties": {}
            },
            {
                "species": [
                    {
                        "element": "O",
                        "occu": 1
                    }
                ],
                "abc": [
                    0.18084668,
                    0.64732354,
                    0.88479301
                ],
                "xyz": [
                    1.5181798828891173,
                    1.6572705424490772,
                    10.841429735085642
                ],
                "label": "O",
                "properties": {}
            },
            {
                "species": [
                    {
                        "element": "O",
                        "occu": 1
                    }
                ],
                "abc": [
                    0.64732354,
                    0.18084668,
                    0.88479301
                ],
                "xyz": [
                    1.5181798828891173,
                    -1.6572705424490772,
                    10.841429735085642
                ],
                "label": "O",
                "properties": {}
            }
        ]
    },
    "spacegroup": {
        "source": "spglib",
        "symbol": "Cm",
        "number": 8,
        "point_group": "m",
        "crystal_system": "monoclinic",
        "hall": "C -2y"
    },
    "dielectric": {
        "epsilon_ionic": [
            [
                9.0386493,
                1.8e-07,
                0.20980362
            ],
            [
                1.8e-07,
                9.89310827,
                3.95e-06
            ],
            [
                0.20980362,
                3.95e-06,
                11.34842153
            ]
        ],
        "epsilon_ionic_avg": 10.093393033333335,
        "epsilon_ionic_eig": [
            9.019746891634323,
            11.367323938376229,
            9.893108269989456
        ],
        "epsilon_electronic": [
            [
                7.39150826,
                0.0,
                -0.08563492
            ],
            [
                0.0,
                8.00489435,
                0.0
            ],
            [
                -0.08566942,
                0.0,
                7.47404425
            ]
        ],
        "epsilon_electronic_avg": 7.623482286666667,
        "epsilon_electronic_eig": [
            7.337700804228172,
            7.527851705771829,
            8.00489435
        ]
    },
    "phonon": {
        "lowest_freq": -0.052528883423991216,
        "frequency": [
            -0.052528883423991216,
            -0.04780132565572973,
            -0.03180749392797802,
            1.7808480118506507,
            1.7910345978897682,
            1.8383861955131153,
            1.9563246965659205,
            2.0136698373703386,
            2.0740469035996094,
            2.128392236327996,
            2.3818942740627502,
            2.686864979224024,
            2.8062462682479246,
            2.829666701799771,
            2.8921182541498203,
            2.967754167595601,
            3.034759443791101,
            3.0571095781627586,
            3.2015643637042204,
            3.254252218284355,
            3.2578427573874706,
            3.3987959987571905,
            3.4496140608527486,
            3.550066749707144,
            3.988615243978713,
            3.9980857379617047,
            4.088634692545686,
            4.1086862896448775,
            4.2923480541887296,
            4.435619767297838,
            4.536696201214299,
            4.720286514282119,
            4.897558333862099,
            4.943939526337083,
            5.057437638655025,
            5.261269207320305,
            5.4187115747281736,
            5.528226095481205,
            5.546589490643758,
            5.6444963365485945,
            5.82726673496115,
            5.900045683835408,
            6.061124532873402,
            6.269774309376129,
            6.353049948974811,
            6.440117402775987,
            6.5303851944224265,
            6.635422667921842,
            6.8240042281388655,
            6.828416864226448,
            7.065142573441241,
            7.079407476727953,
            7.1272133975321665,
            7.464150663034784,
            7.467204208952638,
            7.645946827072877,
            7.791597770850699,
            8.172526938029478,
            8.241903354200385,
            8.50456196643161,
            8.67261016563672,
            9.23067893620982,
            9.25698403743359,
            9.316070507087337,
            9.365662542928712,
            9.766001072118955,
            9.922793085510245,
            10.162882229771803,
            10.25920661388686,
            10.66747151155569,
            10.858390925132335,
            11.082959491517245,
            11.152874848835776,
            11.938878665295448,
            12.559880484704825,
            12.577305151040983,
            12.776669030576308,
            13.340107579469036,
            13.417325936909426,
            13.638203972501987,
            13.750081295325733,
            14.539150894008365,
            15.636582226124768,
            15.704905741387044,
            15.789262292915433,
            15.825609837741105,
            16.540262842242946,
            16.98375221219752,
            17.10052096099733,
            17.186597737788244,
            17.274093074830535,
            17.29235341615842,
            18.219732200192457,
            18.23757177950139,
            18.310133551848498,
            18.77830152616585
        ]
    },
    "born_effective_charge": {
        "avg_abs_trace": 3.4564317708333334,
        "tensors": [
            [
                [
                    3.83368,
                    0.38839,
                    -0.16278
                ],
                [
                    0.28106,
                    3.37186,
                    0.8029
                ],
                [
                    -0.17854,
                    0.49794,
                    2.58776
                ]
            ],
            [
                [
                    3.13895,
                    0.63474,
                    -0.12443
                ],
                [
                    0.697,
                    4.0942,
                    -0.3316
                ],
                [
                    -0.57662,
                    -0.80262,
                    5.06893
                ]
            ],
            [
                [
                    3.13895,
                    -0.63474,
                    -0.12443
                ],
                [
                    -0.69701,
                    4.09421,
                    0.3316
                ],
                [
                    -0.57662,
                    0.80262,
                    5.06893
                ]
            ],
            [
                [
                    2.46497,
                    -0.0,
                    -0.07121
                ],
                [
                    -0.0,
                    2.92631,
                    0.0
                ],
                [
                    0.02046,
                    0.0,
                    2.69526
                ]
            ],
            [
                [
                    3.76736,
                    0.15185,
                    0.11525
                ],
                [
                    0.1211,
                    3.69599,
                    0.15371
                ],
                [
                    -0.06894,
                    -0.03317,
                    2.73635
                ]
            ],
            [
                [
                    3.76736,
                    -0.15185,
                    0.11525
                ],
                [
                    -0.12109,
                    3.69598,
                    -0.15371
                ],
                [
                    -0.06894,
                    0.03317,
                    2.73635
                ]
            ],
            [
                [
                    4.12382,
                    -0.0,
                    -0.27205
                ],
                [
                    -0.0,
                    3.77675,
                    0.0
                ],
                [
                    -0.12477,
                    0.0,
                    3.62288
                ]
            ],
            [
                [
                    4.46261,
                    -0.0,
                    -0.26486
                ],
                [
                    0.0,
                    4.16522,
                    0.0
                ],
                [
                    -0.36525,
                    0.0,
                    2.64621
                ]
            ],
            [
                [
                    4.57052,
                    -0.0,
                    0.21861
                ],
                [
                    -0.0,
                    3.05884,
                    -0.0
                ],
                [
                    0.72491,
                    0.0,
                    5.15707
                ]
            ],
            [
                [
                    3.97097,
                    -0.0433,
                    -0.42331
                ],
                [
                    0.09507,
                    4.09914,
                    -0.59689
                ],
                [
                    -0.4332,
                    -0.65243,
                    3.93915
                ]
            ],
            [
                [
                    3.97097,
                    0.0433,
                    -0.42331
                ],
                [
                    -0.09507,
                    4.09913,
                    0.59689
                ],
                [
                    -0.4332,
                    0.65243,
                    3.93915
                ]
            ],
            [
                [
                    4.17104,
                    -0.0,
                    0.61312
                ],
                [
                    -0.0,
                    4.09268,
                    -0.0
                ],
                [
                    0.58236,
                    0.0,
                    4.04945
                ]
            ],
            [
                [
                    3.95182,
                    -0.0,
                    0.00616
                ],
                [
                    -0.0,
                    3.72204,
                    1e-05
                ],
                [
                    0.38509,
                    0.0,
                    3.12607
                ]
            ],
            [
                [
                    3.83368,
                    -0.38839,
                    -0.16278
                ],
                [
                    -0.28106,
                    3.37186,
                    -0.8029
                ],
                [
                    -0.17854,
                    -0.49794,
                    2.58776
                ]
            ],
            [
                [
                    3.52304,
                    -0.0,
                    0.82288
                ],
                [
                    0.0,
                    3.83937,
                    -0.0
                ],
                [
                    0.87307,
                    0.0,
                    3.15408
                ]
            ],
            [
                [
                    -4.26294,
                    -0.0,
                    -0.53468
                ],
                [
                    0.0,
                    -5.8802,
                    0.0
                ],
                [
                    -0.09765,
                    0.0,
                    -5.07423
                ]
            ],
            [
                [
                    -4.24055,
                    -0.0,
                    0.19667
                ],
                [
                    -0.0,
                    -4.93,
                    -0.0
                ],
                [
                    0.05419,
                    0.0,
                    -5.05581
                ]
            ],
            [
                [
                    -4.90914,
                    -0.0,
                    0.14652
                ],
                [
                    -0.0,
                    -5.89996,
                    -0.0
                ],
                [
                    0.05207,
                    0.0,
                    -4.12564
                ]
            ],
            [
                [
                    -2.74699,
                    -0.0,
                    0.31359
                ],
                [
                    -0.0,
                    -2.74392,
                    0.0
                ],
                [
                    0.14053,
                    0.0,
                    -3.35078
                ]
            ],
            [
                [
                    -3.97375,
                    0.16348,
                    0.21268
                ],
                [
                    0.01096,
                    -3.25597,
                    -0.3707
                ],
                [
                    0.14565,
                    -0.74341,
                    -1.42903
                ]
            ],
            [
                [
                    -3.97375,
                    -0.16348,
                    0.21268
                ],
                [
                    -0.01095,
                    -3.25597,
                    0.3707
                ],
                [
                    0.14565,
                    0.74341,
                    -1.42903
                ]
            ],
            [
                [
                    -2.87038,
                    0.78088,
                    0.41441
                ],
                [
                    0.8909,
                    -1.94582,
                    0.68615
                ],
                [
                    0.52288,
                    0.59445,
                    -3.78768
                ]
            ],
            [
                [
                    -2.87038,
                    -0.78088,
                    0.41441
                ],
                [
                    -0.89091,
                    -1.94581,
                    -0.68615
                ],
                [
                    0.52288,
                    -0.59445,
                    -3.78768
                ]
            ],
            [
                [
                    -3.12973,
                    -0.0,
                    0.17895
                ],
                [
                    -0.0,
                    -3.23876,
                    -1e-05
                ],
                [
                    0.1517,
                    0.0,
                    -1.95424
                ]
            ],
            [
                [
                    -1.33883,
                    -0.0,
                    -0.68051
                ],
                [
                    0.0,
                    -3.5251,
                    -0.0
                ],
                [
                    -0.68402,
                    0.0,
                    -3.79336
                ]
            ],
            [
                [
                    -2.99574,
                    -0.0,
                    -0.21704
                ],
                [
                    -0.0,
                    -2.67909,
                    -0.0
                ],
                [
                    -0.083,
                    0.0,
                    -2.84662
                ]
            ],
            [
                [
                    -2.83628,
                    -0.0,
                    0.89639
                ],
                [
                    0.0,
                    -2.80299,
                    0.0
                ],
                [
                    0.53113,
                    0.0,
                    -3.65249
                ]
            ],
            [
                [
                    -3.06778,
                    -0.0,
                    -0.24017
                ],
                [
                    -0.0,
                    -2.43305,
                    0.0
                ],
                [
                    0.00521,
                    0.0,
                    -2.74336
                ]
            ],
            [
                [
                    -2.79803,
                    -0.20726,
                    -0.44982
                ],
                [
                    -0.07777,
                    -2.83,
                    -0.51459
                ],
                [
                    -0.26408,
                    -0.47369,
                    -3.65474
                ]
            ],
            [
                [
                    -2.79803,
                    0.20726,
                    -0.44982
                ],
                [
                    0.07777,
                    -2.83,
                    0.51459
                ],
                [
                    -0.26408,
                    0.47369,
                    -3.65474
                ]
            ],
            [
                [
                    -3.93872,
                    0.29012,
                    -0.1382
                ],
                [
                    0.30164,
                    -2.95347,
                    -0.03388
                ],
                [
                    -0.23017,
                    0.02642,
                    -1.38799
                ]
            ],
            [
                [
                    -3.93872,
                    -0.29012,
                    -0.1382
                ],
                [
                    -0.30165,
                    -2.95347,
                    0.03387
                ],
                [
                    -0.23017,
                    -0.02642,
                    -1.38799
                ]
            ]
        ]
    },
    "band_gap": 1.5831999999999997,
    "is_direct": false,
    "formula": "Sn15Os3O14"
}