{
    "mp_id": "mp-29488",
    "nelements": 3,
    "nsites": 20,
    "elements": [
        "Na",
        "O",
        "Zn"
    ],
    "structure": {
        "@module": "pymatgen.core.structure",
        "@class": "Structure",
        "charge": null,
        "lattice": {
            "matrix": [
                [
                    7.58283329,
                    0.0,
                    0.00052928
                ],
                [
                    0.0,
                    5.86755739,
                    0.0
                ],
                [
                    -0.51696868,
                    0.0,
                    5.60929057
                ]
            ],
            "a": 7.582833308471811,
            "b": 5.86755739,
            "c": 5.6330628715461595,
            "alpha": 90.0,
            "beta": 95.26167268485725,
            "gamma": 90.0,
            "volume": 249.57414136428076
        },
        "sites": [
            {
                "species": [
                    {
                        "element": "Na",
                        "occu": 1
                    }
                ],
                "abc": [
                    0.97046286,
                    0.25890121,
                    0.99144249
                ],
                "xyz": [
                    6.846313366165397,
                    1.5191177080154419,
                    5.56180265643686
                ],
                "label": "Na",
                "properties": {}
            },
            {
                "species": [
                    {
                        "element": "Na",
                        "occu": 1
                    }
                ],
                "abc": [
                    0.02953714,
                    0.75890121,
                    0.50855751
                ],
                "xyz": [
                    -0.0389330961653962,
                    4.452896403015441,
                    2.8526624785631403
                ],
                "label": "Na",
                "properties": {}
            },
            {
                "species": [
                    {
                        "element": "Na",
                        "occu": 1
                    }
                ],
                "abc": [
                    0.02953714,
                    0.74109879,
                    0.00855751
                ],
                "xyz": [
                    0.21955124383460378,
                    4.3484396819845585,
                    0.0480171935631399
                ],
                "label": "Na",
                "properties": {}
            },
            {
                "species": [
                    {
                        "element": "Na",
                        "occu": 1
                    }
                ],
                "abc": [
                    0.97046286,
                    0.24109879,
                    0.49144249
                ],
                "xyz": [
                    7.104797706165397,
                    1.414660986984558,
                    2.75715737143686
                ],
                "label": "Na",
                "properties": {}
            },
            {
                "species": [
                    {
                        "element": "Na",
                        "occu": 1
                    }
                ],
                "abc": [
                    0.67700783,
                    0.64396803,
                    0.57160595
                ],
                "xyz": [
                    4.838135137463015,
                    3.778519373350242,
                    3.206662191795154
                ],
                "label": "Na",
                "properties": {}
            },
            {
                "species": [
                    {
                        "element": "Na",
                        "occu": 1
                    }
                ],
                "abc": [
                    0.32299217,
                    0.14396803,
                    0.92839405
                ],
                "xyz": [
                    1.9692451325369853,
                    0.8447406783502417,
                    5.207802943204845
                ],
                "label": "Na",
                "properties": {}
            },
            {
                "species": [
                    {
                        "element": "Na",
                        "occu": 1
                    }
                ],
                "abc": [
                    0.32299217,
                    0.35603197,
                    0.42839405
                ],
                "xyz": [
                    2.227729472536985,
                    2.089038016649758,
                    2.4031576582048464
                ],
                "label": "Na",
                "properties": {}
            },
            {
                "species": [
                    {
                        "element": "Na",
                        "occu": 1
                    }
                ],
                "abc": [
                    0.67700783,
                    0.85603197,
                    0.07160595
                ],
                "xyz": [
                    5.0966194774630145,
                    5.022816711649758,
                    0.4020169067951539
                ],
                "label": "Na",
                "properties": {}
            },
            {
                "species": [
                    {
                        "element": "Zn",
                        "occu": 1
                    }
                ],
                "abc": [
                    0.63193643,
                    0.39516966,
                    0.14567804
                ],
                "xyz": [
                    4.716557614523968,
                    2.3186806588367874,
                    0.8174849273417532
                ],
                "label": "Zn",
                "properties": {}
            },
            {
                "species": [
                    {
                        "element": "Zn",
                        "occu": 1
                    }
                ],
                "abc": [
                    0.36806357,
                    0.89516966,
                    0.35432196
                ],
                "xyz": [
                    2.6077913354760325,
                    5.252459353836787,
                    1.9876896376582467
                ],
                "label": "Zn",
                "properties": {}
            },
            {
                "species": [
                    {
                        "element": "Zn",
                        "occu": 1
                    }
                ],
                "abc": [
                    0.36806357,
                    0.60483034,
                    0.85432196
                ],
                "xyz": [
                    2.3493069954760326,
                    3.5488767311632126,
                    4.792334922658247
                ],
                "label": "Zn",
                "properties": {}
            },
            {
                "species": [
                    {
                        "element": "Zn",
                        "occu": 1
                    }
                ],
                "abc": [
                    0.63193643,
                    0.10483034,
                    0.64567804
                ],
                "xyz": [
                    4.458073274523968,
                    0.6150980361632126,
                    3.622130212341753
                ],
                "label": "Zn",
                "properties": {}
            },
            {
                "species": [
                    {
                        "element": "O",
                        "occu": 1
                    }
                ],
                "abc": [
                    0.84946044,
                    0.96582572,
                    0.74733286
                ],
                "xyz": [
                    6.054969220815223,
                    5.667037840838071,
                    4.192456766670813
                ],
                "label": "O",
                "properties": {}
            },
            {
                "species": [
                    {
                        "element": "O",
                        "occu": 1
                    }
                ],
                "abc": [
                    0.15053956,
                    0.46582572,
                    0.75266714
                ],
                "xyz": [
                    0.7524110491847771,
                    2.733259145838071,
                    4.2220083683291865
                ],
                "label": "O",
                "properties": {}
            },
            {
                "species": [
                    {
                        "element": "O",
                        "occu": 1
                    }
                ],
                "abc": [
                    0.15053956,
                    0.03417428,
                    0.25266714
                ],
                "xyz": [
                    1.0108953891847772,
                    0.2005195491619292,
                    1.4173630833291866
                ],
                "label": "O",
                "properties": {}
            },
            {
                "species": [
                    {
                        "element": "O",
                        "occu": 1
                    }
                ],
                "abc": [
                    0.84946044,
                    0.53417428,
                    0.24733286
                ],
                "xyz": [
                    6.313453560815223,
                    3.134298244161929,
                    1.3878114816708131
                ],
                "label": "O",
                "properties": {}
            },
            {
                "species": [
                    {
                        "element": "O",
                        "occu": 1
                    }
                ],
                "abc": [
                    0.56205207,
                    0.12487965,
                    0.30342405
                ],
                "xyz": [
                    4.105086416500656,
                    0.7327385132181135,
                    1.702291145295818
                ],
                "label": "O",
                "properties": {}
            },
            {
                "species": [
                    {
                        "element": "O",
                        "occu": 1
                    }
                ],
                "abc": [
                    0.43794793,
                    0.62487965,
                    0.19657595
                ],
                "xyz": [
                    3.2192625334993434,
                    3.6665172082181137,
                    1.102883419704182
                ],
                "label": "O",
                "properties": {}
            },
            {
                "species": [
                    {
                        "element": "O",
                        "occu": 1
                    }
                ],
                "abc": [
                    0.43794793,
                    0.87512035,
                    0.69657595
                ],
                "xyz": [
                    2.960778193499343,
                    5.134818876781886,
                    3.9075287047041822
                ],
                "label": "O",
                "properties": {}
            },
            {
                "species": [
                    {
                        "element": "O",
                        "occu": 1
                    }
                ],
                "abc": [
                    0.56205207,
                    0.37512035,
                    0.80342405
                ],
                "xyz": [
                    3.8466020765006563,
                    2.2010401817818863,
                    4.506936430295818
                ],
                "label": "O",
                "properties": {}
            }
        ]
    },
    "spacegroup": {
        "source": "spglib",
        "symbol": "P2_1/c",
        "number": 14,
        "point_group": "2/m",
        "crystal_system": "monoclinic",
        "hall": "-P 2ybc"
    },
    "dielectric": {
        "epsilon_ionic": [
            [
                6.11009698,
                -2e-08,
                1.46020791
            ],
            [
                -2e-08,
                4.83081714,
                1e-08
            ],
            [
                1.46020791,
                1e-08,
                5.61037515
            ]
        ],
        "epsilon_ionic_avg": 5.517096423333335,
        "epsilon_ionic_eig": [
            7.341667000707499,
            4.378805129292501,
            4.830817140000003
        ],
        "epsilon_electronic": [
            [
                3.36220975,
                0.0,
                0.07184553
            ],
            [
                0.0,
                3.34827523,
                0.0
            ],
            [
                0.07184753,
                0.0,
                3.33841885
            ]
        ],
        "epsilon_electronic_avg": 3.3496346100000003,
        "epsilon_electronic_eig": [
            3.423138922228635,
            3.277489677771365,
            3.34827523
        ]
    },
    "phonon": {
        "lowest_freq": -0.22005304117931157,
        "frequency": [
            -0.22005304117931157,
            -0.04073512769003748,
            -0.0329895824988869,
            2.7273355685517364,
            3.179780765183441,
            3.2197488978881106,
            3.348827910457782,
            3.3604249462919187,
            3.5602800389782243,
            3.8990461937085024,
            4.070045129888788,
            4.236631608733801,
            4.271062296572087,
            4.45158012019076,
            4.680139311585814,
            4.769260990629989,
            4.87742282704527,
            4.992742875859976,
            5.1318852586156645,
            5.180635810239867,
            5.540965284513804,
            5.787727381816547,
            6.098877773743645,
            6.449601775495682,
            6.501027236630086,
            6.715610388644299,
            7.09813714747348,
            7.118963975043389,
            7.172745052131962,
            7.405498853683275,
            7.469038374659192,
            7.480363855507002,
            7.688411370041453,
            7.758668001414158,
            7.828239942956338,
            7.856922544967629,
            8.161620856657336,
            8.18966806751256,
            8.322445092458535,
            8.415555349033157,
            8.758772744326201,
            8.897427783016784,
            8.927820644419555,
            8.9556809313221,
            9.203142660832363,
            9.206038698848781,
            9.729662347259001,
            10.768322241925258,
            11.15880017052392,
            11.603625821838953,
            11.944818930521244,
            12.970120252010943,
            14.70225234597018,
            14.841562032393176,
            15.245826215735784,
            15.397170893753792,
            15.685978928915013,
            16.527977072467657,
            16.84590785258337,
            18.097145305399287
        ]
    },
    "born_effective_charge": {
        "avg_abs_trace": 1.4955756666666666,
        "tensors": [
            [
                [
                    1.1175,
                    -0.01683,
                    0.01752
                ],
                [
                    -0.02143,
                    0.89772,
                    -0.06551
                ],
                [
                    0.00801,
                    -0.00116,
                    0.90646
                ]
            ],
            [
                [
                    1.11751,
                    0.01684,
                    0.01751
                ],
                [
                    0.02143,
                    0.89772,
                    0.06551
                ],
                [
                    0.00802,
                    0.00116,
                    0.90646
                ]
            ],
            [
                [
                    1.11751,
                    -0.01684,
                    0.01751
                ],
                [
                    -0.02146,
                    0.89771,
                    -0.06552
                ],
                [
                    0.00802,
                    -0.00116,
                    0.90646
                ]
            ],
            [
                [
                    1.1175,
                    0.01683,
                    0.01752
                ],
                [
                    0.02146,
                    0.89771,
                    0.06552
                ],
                [
                    0.00801,
                    0.00116,
                    0.90646
                ]
            ],
            [
                [
                    0.91471,
                    -0.03161,
                    0.03212
                ],
                [
                    -0.01432,
                    1.04438,
                    0.03972
                ],
                [
                    0.03113,
                    0.00393,
                    1.01686
                ]
            ],
            [
                [
                    0.9147,
                    0.0316,
                    0.03213
                ],
                [
                    0.01432,
                    1.04438,
                    -0.03972
                ],
                [
                    0.03117,
                    -0.00391,
                    1.01682
                ]
            ],
            [
                [
                    0.9147,
                    -0.0316,
                    0.03213
                ],
                [
                    -0.01429,
                    1.0444,
                    0.03977
                ],
                [
                    0.03117,
                    0.00391,
                    1.01682
                ]
            ],
            [
                [
                    0.91471,
                    0.03161,
                    0.03212
                ],
                [
                    0.01429,
                    1.0444,
                    -0.03977
                ],
                [
                    0.03113,
                    -0.00393,
                    1.01686
                ]
            ],
            [
                [
                    1.676,
                    0.12779,
                    0.09139
                ],
                [
                    0.03268,
                    1.82005,
                    -0.08271
                ],
                [
                    0.12152,
                    -0.27598,
                    1.8231
                ]
            ],
            [
                [
                    1.67609,
                    -0.12769,
                    0.09109
                ],
                [
                    -0.03268,
                    1.82005,
                    0.08271
                ],
                [
                    0.12146,
                    0.27591,
                    1.82321
                ]
            ],
            [
                [
                    1.67609,
                    0.12769,
                    0.09109
                ],
                [
                    0.03267,
                    1.81996,
                    -0.08269
                ],
                [
                    0.12146,
                    -0.27591,
                    1.82321
                ]
            ],
            [
                [
                    1.676,
                    -0.12779,
                    0.09139
                ],
                [
                    -0.03267,
                    1.81996,
                    0.08269
                ],
                [
                    0.12152,
                    0.27598,
                    1.8231
                ]
            ],
            [
                [
                    -2.10251,
                    0.28425,
                    -0.18754
                ],
                [
                    0.16167,
                    -1.66103,
                    0.04005
                ],
                [
                    -0.16872,
                    0.01277,
                    -1.60362
                ]
            ],
            [
                [
                    -2.10244,
                    -0.28416,
                    -0.18756
                ],
                [
                    -0.16167,
                    -1.66103,
                    -0.04005
                ],
                [
                    -0.1686,
                    -0.01268,
                    -1.60371
                ]
            ],
            [
                [
                    -2.10244,
                    0.28416,
                    -0.18756
                ],
                [
                    0.16162,
                    -1.66106,
                    0.04004
                ],
                [
                    -0.1686,
                    0.01268,
                    -1.60371
                ]
            ],
            [
                [
                    -2.10251,
                    -0.28425,
                    -0.18754
                ],
                [
                    -0.16162,
                    -1.66106,
                    -0.04004
                ],
                [
                    -0.16872,
                    -0.01277,
                    -1.60362
                ]
            ],
            [
                [
                    -1.60576,
                    -0.34406,
                    0.04671
                ],
                [
                    -0.51957,
                    -2.10114,
                    0.41835
                ],
                [
                    0.00794,
                    0.32609,
                    -2.14282
                ]
            ],
            [
                [
                    -1.6058,
                    0.34421,
                    0.04663
                ],
                [
                    0.51957,
                    -2.10114,
                    -0.41835
                ],
                [
                    0.00807,
                    -0.32582,
                    -2.14275
                ]
            ],
            [
                [
                    -1.6058,
                    -0.34421,
                    0.04663
                ],
                [
                    -0.51933,
                    -2.10099,
                    0.41857
                ],
                [
                    0.00807,
                    0.32582,
                    -2.14275
                ]
            ],
            [
                [
                    -1.60576,
                    0.34406,
                    0.04671
                ],
                [
                    0.51933,
                    -2.10099,
                    -0.41857
                ],
                [
                    0.00794,
                    -0.32609,
                    -2.14282
                ]
            ]
        ]
    },
    "band_gap": 1.8978,
    "is_direct": true,
    "formula": "Na2ZnO2"
}