{
    "mp_id": "mp-29606",
    "nelements": 3,
    "nsites": 18,
    "elements": [
        "O",
        "Rb",
        "Zn"
    ],
    "structure": {
        "@module": "pymatgen.core.structure",
        "@class": "Structure",
        "charge": null,
        "lattice": {
            "matrix": [
                [
                    7.51727546,
                    -3.19937754,
                    -0.00023968
                ],
                [
                    7.51727546,
                    3.19937754,
                    -0.00023968
                ],
                [
                    -1.08414347,
                    0.0,
                    5.53123391
                ]
            ],
            "a": 8.169788677953742,
            "b": 8.169788677953742,
            "c": 5.6364807842019236,
            "alpha": 100.19567761756643,
            "beta": 100.19567761756643,
            "gamma": 46.109531459927645,
            "volume": 266.0573509487479
        },
        "sites": [
            {
                "species": [
                    {
                        "element": "Rb",
                        "occu": 1
                    }
                ],
                "abc": [
                    0.25127774,
                    0.97902709,
                    0.00241642
                ],
                "xyz": [
                    9.245920560914694,
                    2.3283449251395987,
                    0.0130709047831478
                ],
                "label": "Rb",
                "properties": {}
            },
            {
                "species": [
                    {
                        "element": "Rb",
                        "occu": 1
                    }
                ],
                "abc": [
                    0.02097291,
                    0.74872226,
                    0.49758358
                ],
                "xyz": [
                    5.2465586240853055,
                    2.3283449251395987,
                    2.7520666902168522
                ],
                "label": "Rb",
                "properties": {}
            },
            {
                "species": [
                    {
                        "element": "Rb",
                        "occu": 1
                    }
                ],
                "abc": [
                    0.74872226,
                    0.02097291,
                    0.99758358
                ],
                "xyz": [
                    4.704486889085305,
                    -2.3283449251395987,
                    5.517683645216852
                ],
                "label": "Rb",
                "properties": {}
            },
            {
                "species": [
                    {
                        "element": "Rb",
                        "occu": 1
                    }
                ],
                "abc": [
                    0.97902709,
                    0.25127774,
                    0.50241642
                ],
                "xyz": [
                    8.703848825914694,
                    -2.3283449251395987,
                    2.778687859783148
                ],
                "label": "Rb",
                "properties": {}
            },
            {
                "species": [
                    {
                        "element": "Zn",
                        "occu": 1
                    }
                ],
                "abc": [
                    0.81144654,
                    0.58011744,
                    0.08968965
                ],
                "xyz": [
                    10.363533309499845,
                    -0.7401091268884141,
                    0.4957609034013051
                ],
                "label": "Zn",
                "properties": {}
            },
            {
                "species": [
                    {
                        "element": "Zn",
                        "occu": 1
                    }
                ],
                "abc": [
                    0.41988256,
                    0.18855346,
                    0.41031035
                ],
                "xyz": [
                    4.128945875500155,
                    -0.7401091268884139,
                    2.2693766915986946
                ],
                "label": "Zn",
                "properties": {}
            },
            {
                "species": [
                    {
                        "element": "Zn",
                        "occu": 1
                    }
                ],
                "abc": [
                    0.48575625,
                    0.51424375,
                    0.25
                ],
                "xyz": [
                    7.246239592499999,
                    0.09114226767075007,
                    1.3825687975
                ],
                "label": "Zn",
                "properties": {}
            },
            {
                "species": [
                    {
                        "element": "Zn",
                        "occu": 1
                    }
                ],
                "abc": [
                    0.51424375,
                    0.48575625,
                    0.75
                ],
                "xyz": [
                    6.7041678575,
                    -0.09114226767075007,
                    4.1481857525
                ],
                "label": "Zn",
                "properties": {}
            },
            {
                "species": [
                    {
                        "element": "Zn",
                        "occu": 1
                    }
                ],
                "abc": [
                    0.18855346,
                    0.41988256,
                    0.91031035
                ],
                "xyz": [
                    3.5868741405001545,
                    0.7401091268884139,
                    5.0349936465986955
                ],
                "label": "Zn",
                "properties": {}
            },
            {
                "species": [
                    {
                        "element": "Zn",
                        "occu": 1
                    }
                ],
                "abc": [
                    0.58011744,
                    0.81144654,
                    0.58968965
                ],
                "xyz": [
                    9.821461574499844,
                    0.7401091268884141,
                    3.261377858401305
                ],
                "label": "Zn",
                "properties": {}
            },
            {
                "species": [
                    {
                        "element": "O",
                        "occu": 1
                    }
                ],
                "abc": [
                    0.13976989,
                    0.37723375,
                    0.20999248
                ],
                "xyz": [
                    3.6587967997615682,
                    0.7597365402457044,
                    1.1613936107885616
                ],
                "label": "O",
                "properties": {}
            },
            {
                "species": [
                    {
                        "element": "O",
                        "occu": 1
                    }
                ],
                "abc": [
                    0.62276625,
                    0.86023011,
                    0.29000752
                ],
                "xyz": [
                    10.83368238523843,
                    0.7597365402457048,
                    1.6037439842114385
                ],
                "label": "O",
                "properties": {}
            },
            {
                "species": [
                    {
                        "element": "O",
                        "occu": 1
                    }
                ],
                "abc": [
                    0.86023011,
                    0.62276625,
                    0.79000752
                ],
                "xyz": [
                    10.29161065023843,
                    -0.7597365402457048,
                    4.369360939211438
                ],
                "label": "O",
                "properties": {}
            },
            {
                "species": [
                    {
                        "element": "O",
                        "occu": 1
                    }
                ],
                "abc": [
                    0.37723375,
                    0.13976989,
                    0.70999248
                ],
                "xyz": [
                    3.1167250647615683,
                    -0.7597365402457044,
                    3.927010565788562
                ],
                "label": "O",
                "properties": {}
            },
            {
                "species": [
                    {
                        "element": "O",
                        "occu": 1
                    }
                ],
                "abc": [
                    0.58768863,
                    0.28081964,
                    0.45986816
                ],
                "xyz": [
                    6.03025284215314,
                    -0.9817897543284848,
                    2.5434301966591524
                ],
                "label": "O",
                "properties": {}
            },
            {
                "species": [
                    {
                        "element": "O",
                        "occu": 1
                    }
                ],
                "abc": [
                    0.71918036,
                    0.41231137,
                    0.04013184
                ],
                "xyz": [
                    8.462226342846861,
                    -0.9817897543284844,
                    0.221707398340848
                ],
                "label": "O",
                "properties": {}
            },
            {
                "species": [
                    {
                        "element": "O",
                        "occu": 1
                    }
                ],
                "abc": [
                    0.28081964,
                    0.58768863,
                    0.95986816
                ],
                "xyz": [
                    5.48818110715314,
                    0.9817897543284848,
                    5.3090471516591515
                ],
                "label": "O",
                "properties": {}
            },
            {
                "species": [
                    {
                        "element": "O",
                        "occu": 1
                    }
                ],
                "abc": [
                    0.41231137,
                    0.71918036,
                    0.54013184
                ],
                "xyz": [
                    7.920154607846861,
                    0.9817897543284844,
                    2.9873243533408482
                ],
                "label": "O",
                "properties": {}
            }
        ]
    },
    "spacegroup": {
        "source": "spglib",
        "symbol": "C2/c",
        "number": 15,
        "point_group": "2/m",
        "crystal_system": "monoclinic",
        "hall": "-C 2yc"
    },
    "dielectric": {
        "epsilon_ionic": [
            [
                5.34404308,
                -0.0,
                -0.53174436
            ],
            [
                -0.0,
                6.56209399,
                1e-08
            ],
            [
                -0.53174436,
                1e-08,
                5.46871559
            ]
        ],
        "epsilon_ionic_avg": 5.791617553333334,
        "epsilon_ionic_eig": [
            4.870993611358404,
            5.9417650586415975,
            6.56209399
        ],
        "epsilon_electronic": [
            [
                3.75379558,
                0.0,
                0.05730637
            ],
            [
                0.0,
                3.67907263,
                0.0
            ],
            [
                0.05730403,
                0.0,
                3.77256186
            ]
        ],
        "epsilon_electronic_avg": 3.7351433566666667,
        "epsilon_electronic_eig": [
            3.705110404526493,
            3.821247035473507,
            3.67907263
        ]
    },
    "phonon": {
        "lowest_freq": -0.09115543424454906,
        "frequency": [
            -0.09115543424454906,
            -0.0513904272762233,
            -0.033895061721048655,
            1.9169951924292978,
            2.1372768873969057,
            2.161599057814792,
            2.4826943560602013,
            2.7189243736032624,
            2.793947492845638,
            2.7984190883900015,
            3.0856116310063575,
            3.188195372728081,
            3.1908407066287254,
            3.4673344847972483,
            3.5769815031680836,
            3.6467905677265886,
            3.899471327071861,
            3.9228107822209837,
            4.101299492749146,
            4.299292036679914,
            4.450356891897784,
            4.610735616110106,
            4.787693870116805,
            5.056973505087814,
            5.623970308468335,
            5.933889195823417,
            6.24457083570262,
            6.370268365145536,
            6.863382179121874,
            7.416860364821607,
            7.451717048355683,
            7.498471707183314,
            8.301205533699498,
            8.423144036745107,
            9.35603092877813,
            9.447941318489164,
            9.484038412274549,
            9.816579840068432,
            10.538931830600848,
            11.212468008717,
            11.251464351735137,
            11.556160567494745,
            11.560194492735162,
            12.183535230129968,
            13.050818189798898,
            13.367590999208382,
            13.914970752619361,
            14.097697631838805,
            14.923935078451677,
            16.132295514488753,
            16.177840508859955,
            16.60414823244819,
            17.183741975011355,
            18.344966159933573
        ]
    },
    "born_effective_charge": {
        "avg_abs_trace": 1.8181485185185187,
        "tensors": [
            [
                [
                    1.27322,
                    0.10874,
                    0.07759
                ],
                [
                    0.1359,
                    1.29568,
                    0.03809
                ],
                [
                    0.0761,
                    0.00768,
                    1.18218
                ]
            ],
            [
                [
                    1.27324,
                    -0.10869,
                    0.07773
                ],
                [
                    -0.1359,
                    1.29568,
                    -0.03809
                ],
                [
                    0.07617,
                    -0.00768,
                    1.18212
                ]
            ],
            [
                [
                    1.27324,
                    0.10869,
                    0.07773
                ],
                [
                    0.13586,
                    1.2956,
                    0.03808
                ],
                [
                    0.07617,
                    0.00768,
                    1.18212
                ]
            ],
            [
                [
                    1.27322,
                    -0.10874,
                    0.07759
                ],
                [
                    -0.13586,
                    1.2956,
                    -0.03808
                ],
                [
                    0.0761,
                    -0.00768,
                    1.18218
                ]
            ],
            [
                [
                    1.97582,
                    -0.11824,
                    0.03295
                ],
                [
                    -0.2125,
                    1.95555,
                    0.11824
                ],
                [
                    0.03263,
                    0.2365,
                    1.82705
                ]
            ],
            [
                [
                    1.97588,
                    0.11817,
                    0.033
                ],
                [
                    0.2125,
                    1.95555,
                    -0.11824
                ],
                [
                    0.03269,
                    -0.23654,
                    1.82715
                ]
            ],
            [
                [
                    1.87189,
                    3e-05,
                    -0.03993
                ],
                [
                    0.0,
                    1.31926,
                    0.0
                ],
                [
                    -0.05816,
                    -1e-05,
                    2.33481
                ]
            ],
            [
                [
                    1.87189,
                    -3e-05,
                    -0.03993
                ],
                [
                    0.0,
                    1.3193,
                    0.0
                ],
                [
                    -0.05816,
                    1e-05,
                    2.33481
                ]
            ],
            [
                [
                    1.97588,
                    -0.11817,
                    0.033
                ],
                [
                    -0.21252,
                    1.95553,
                    0.11823
                ],
                [
                    0.03269,
                    0.23654,
                    1.82715
                ]
            ],
            [
                [
                    1.97582,
                    0.11824,
                    0.03295
                ],
                [
                    0.21252,
                    1.95553,
                    -0.11823
                ],
                [
                    0.03263,
                    -0.2365,
                    1.82705
                ]
            ],
            [
                [
                    -1.79451,
                    0.20755,
                    0.01135
                ],
                [
                    0.26586,
                    -2.30312,
                    0.36759
                ],
                [
                    0.01411,
                    0.34063,
                    -2.14377
                ]
            ],
            [
                [
                    -1.79449,
                    -0.2075,
                    0.01141
                ],
                [
                    -0.26586,
                    -2.30312,
                    -0.36759
                ],
                [
                    0.01414,
                    -0.34077,
                    -2.14372
                ]
            ],
            [
                [
                    -1.79449,
                    0.2075,
                    0.01141
                ],
                [
                    0.26559,
                    -2.30313,
                    0.36788
                ],
                [
                    0.01414,
                    0.34077,
                    -2.14372
                ]
            ],
            [
                [
                    -1.79451,
                    -0.20755,
                    0.01135
                ],
                [
                    -0.26559,
                    -2.30313,
                    -0.36788
                ],
                [
                    0.01411,
                    -0.34063,
                    -2.14377
                ]
            ],
            [
                [
                    -2.39052,
                    -0.30607,
                    -0.10203
                ],
                [
                    -0.24591,
                    -1.60783,
                    -0.10037
                ],
                [
                    -0.09386,
                    -0.0349,
                    -2.03297
                ]
            ],
            [
                [
                    -2.39053,
                    0.30612,
                    -0.10208
                ],
                [
                    0.24591,
                    -1.60783,
                    0.10037
                ],
                [
                    -0.09382,
                    0.03469,
                    -2.03285
                ]
            ],
            [
                [
                    -2.39052,
                    0.30607,
                    -0.10203
                ],
                [
                    0.24601,
                    -1.60757,
                    0.10025
                ],
                [
                    -0.09386,
                    0.0349,
                    -2.03297
                ]
            ],
            [
                [
                    -2.39053,
                    -0.30612,
                    -0.10208
                ],
                [
                    -0.24601,
                    -1.60757,
                    -0.10025
                ],
                [
                    -0.09382,
                    -0.03469,
                    -2.03285
                ]
            ]
        ]
    },
    "band_gap": 1.9823,
    "is_direct": true,
    "formula": "Rb2Zn3O4"
}