{
    "mp_id": "mp-28371",
    "nelements": 3,
    "nsites": 18,
    "elements": [
        "K",
        "O",
        "Zn"
    ],
    "structure": {
        "@module": "pymatgen.core.structure",
        "@class": "Structure",
        "charge": null,
        "lattice": {
            "matrix": [
                [
                    7.34310375,
                    -3.15180353,
                    -0.00205835
                ],
                [
                    7.34310375,
                    3.15180353,
                    -0.00205835
                ],
                [
                    -1.18071086,
                    0.0,
                    5.49376369
                ]
            ],
            "a": 7.9909350148646086,
            "b": 7.9909350148646086,
            "c": 5.619209696788718,
            "alpha": 101.14763045201565,
            "beta": 101.14763045201565,
            "gamma": 46.45990730449453,
            "volume": 254.28023719539186
        },
        "sites": [
            {
                "species": [
                    {
                        "element": "K",
                        "occu": 1
                    }
                ],
                "abc": [
                    0.98996775,
                    0.24502564,
                    0.49267492
                ],
                "xyz": [
                    8.486977964840582,
                    -2.3479111719436485,
                    2.7040975378253482
                ],
                "label": "K",
                "properties": {}
            },
            {
                "species": [
                    {
                        "element": "K",
                        "occu": 1
                    }
                ],
                "abc": [
                    0.75497436,
                    0.01003225,
                    0.00732508
                ],
                "xyz": [
                    5.608874105159418,
                    -2.347911171943648,
                    0.0386676071746517
                ],
                "label": "K",
                "properties": {}
            },
            {
                "species": [
                    {
                        "element": "K",
                        "occu": 1
                    }
                ],
                "abc": [
                    0.01003225,
                    0.75497436,
                    0.50732508
                ],
                "xyz": [
                    5.018518675159418,
                    2.347911171943648,
                    2.7855494521746516
                ],
                "label": "K",
                "properties": {}
            },
            {
                "species": [
                    {
                        "element": "K",
                        "occu": 1
                    }
                ],
                "abc": [
                    0.24502564,
                    0.98996775,
                    0.99267492
                ],
                "xyz": [
                    7.896622534840581,
                    2.3479111719436485,
                    5.4509793828253486
                ],
                "label": "K",
                "properties": {}
            },
            {
                "species": [
                    {
                        "element": "Zn",
                        "occu": 1
                    }
                ],
                "abc": [
                    0.51639016,
                    0.48360984,
                    0.75
                ],
                "xyz": [
                    6.457570605000001,
                    -0.10331712829052964,
                    4.118264417499999
                ],
                "label": "Zn",
                "properties": {}
            },
            {
                "species": [
                    {
                        "element": "Zn",
                        "occu": 1
                    }
                ],
                "abc": [
                    0.48360984,
                    0.51639016,
                    0.25
                ],
                "xyz": [
                    7.047926035000001,
                    0.10331712829052964,
                    1.3713825725
                ],
                "label": "Zn",
                "properties": {}
            },
            {
                "species": [
                    {
                        "element": "Zn",
                        "occu": 1
                    }
                ],
                "abc": [
                    0.18863428,
                    0.42443888,
                    0.91232125
                ],
                "xyz": [
                    3.424672212536575,
                    0.7432097706702381,
                    5.010815437726526
                ],
                "label": "Zn",
                "properties": {}
            },
            {
                "species": [
                    {
                        "element": "Zn",
                        "occu": 1
                    }
                ],
                "abc": [
                    0.57556112,
                    0.81136572,
                    0.58767875
                ],
                "xyz": [
                    9.490468997463424,
                    0.7432097706702379,
                    3.2257133972734735
                ],
                "label": "Zn",
                "properties": {}
            },
            {
                "species": [
                    {
                        "element": "Zn",
                        "occu": 1
                    }
                ],
                "abc": [
                    0.81136572,
                    0.57556112,
                    0.08767875
                ],
                "xyz": [
                    10.080824427463423,
                    -0.7432097706702379,
                    0.47883155227347346
                ],
                "label": "Zn",
                "properties": {}
            },
            {
                "species": [
                    {
                        "element": "Zn",
                        "occu": 1
                    }
                ],
                "abc": [
                    0.42443888,
                    0.18863428,
                    0.41232125
                ],
                "xyz": [
                    4.015027642536575,
                    -0.7432097706702381,
                    2.2639335927265263
                ],
                "label": "Zn",
                "properties": {}
            },
            {
                "species": [
                    {
                        "element": "O",
                        "occu": 1
                    }
                ],
                "abc": [
                    0.73084121,
                    0.39180534,
                    0.04227071
                ],
                "xyz": [
                    8.193800604872653,
                    -1.068574451862621,
                    0.2299144922223274
                ],
                "label": "O",
                "properties": {}
            },
            {
                "species": [
                    {
                        "element": "O",
                        "occu": 1
                    }
                ],
                "abc": [
                    0.60819466,
                    0.26915879,
                    0.45772929
                ],
                "xyz": [
                    5.902051465127348,
                    -1.0685744518626212,
                    2.5128506527776726
                ],
                "label": "O",
                "properties": {}
            },
            {
                "species": [
                    {
                        "element": "O",
                        "occu": 1
                    }
                ],
                "abc": [
                    0.26915879,
                    0.60819466,
                    0.95772929
                ],
                "xyz": [
                    5.311696035127348,
                    1.0685744518626212,
                    5.259732497777672
                ],
                "label": "O",
                "properties": {}
            },
            {
                "species": [
                    {
                        "element": "O",
                        "occu": 1
                    }
                ],
                "abc": [
                    0.39180534,
                    0.73084121,
                    0.54227071
                ],
                "xyz": [
                    7.603445174872652,
                    1.068574451862621,
                    2.9767963372223276
                ],
                "label": "O",
                "properties": {}
            },
            {
                "species": [
                    {
                        "element": "O",
                        "occu": 1
                    }
                ],
                "abc": [
                    0.38242233,
                    0.14106452,
                    0.71377192
                ],
                "xyz": [
                    3.0012599938036364,
                    -0.7607123975510692,
                    3.920216737879887
                ],
                "label": "O",
                "properties": {}
            },
            {
                "species": [
                    {
                        "element": "O",
                        "occu": 1
                    }
                ],
                "abc": [
                    0.85893548,
                    0.61757767,
                    0.78622808
                ],
                "xyz": [
                    9.913881216196364,
                    -0.7607123975510692,
                    4.316312097120113
                ],
                "label": "O",
                "properties": {}
            },
            {
                "species": [
                    {
                        "element": "O",
                        "occu": 1
                    }
                ],
                "abc": [
                    0.61757767,
                    0.85893548,
                    0.28622808
                ],
                "xyz": [
                    10.504236646196363,
                    0.7607123975510692,
                    1.5694302521201127
                ],
                "label": "O",
                "properties": {}
            },
            {
                "species": [
                    {
                        "element": "O",
                        "occu": 1
                    }
                ],
                "abc": [
                    0.14106452,
                    0.38242233,
                    0.21377192
                ],
                "xyz": [
                    3.591615423803636,
                    0.7607123975510692,
                    1.1733348928798872
                ],
                "label": "O",
                "properties": {}
            }
        ]
    },
    "spacegroup": {
        "source": "spglib",
        "symbol": "C2/c",
        "number": 15,
        "point_group": "2/m",
        "crystal_system": "monoclinic",
        "hall": "-C 2yc"
    },
    "dielectric": {
        "epsilon_ionic": [
            [
                5.88788533,
                -0.0,
                -0.84919756
            ],
            [
                -0.0,
                6.21599283,
                1e-08
            ],
            [
                -0.84919756,
                1e-08,
                5.52697345
            ]
        ],
        "epsilon_ionic_avg": 5.876950536666668,
        "epsilon_ionic_eig": [
            4.839269933338244,
            6.575588846661759,
            6.21599283
        ],
        "epsilon_electronic": [
            [
                3.64092038,
                0.0,
                0.02598978
            ],
            [
                0.0,
                3.52845148,
                0.0
            ],
            [
                0.02599003,
                0.0,
                3.66137443
            ]
        ],
        "epsilon_electronic_avg": 3.6102487633333333,
        "epsilon_electronic_eig": [
            3.623217721825212,
            3.679077088174788,
            3.52845148
        ]
    },
    "phonon": {
        "lowest_freq": -0.12141135176383334,
        "frequency": [
            -0.12141135176383334,
            -0.07887820364005406,
            -0.05763327897896587,
            2.594297103066413,
            2.6755558427679573,
            2.681628627902081,
            2.7024733174287365,
            3.23969164409864,
            3.4239612778908066,
            3.443783754073558,
            3.609286184563714,
            3.628157216792799,
            3.7980577847999215,
            3.860466393939379,
            3.962125867350292,
            4.150629757277958,
            4.207670624829813,
            4.637252902085083,
            4.647443872807646,
            4.878619608399574,
            4.914053690957481,
            5.146696713413603,
            5.304240864858912,
            5.432847809076025,
            5.561344477215345,
            6.305044971783437,
            6.5681527559238795,
            6.745814575179695,
            6.987344701842615,
            7.23376466567706,
            7.304730495726839,
            7.709944273396607,
            8.0923791297136,
            8.322440100171491,
            9.498133935051571,
            9.530183815757203,
            10.271714244453422,
            10.363643013177697,
            10.814680342736638,
            11.09441928924977,
            11.342178667844035,
            11.42242924382003,
            11.942390031703841,
            12.550773814418863,
            13.167664405556595,
            13.33885045444967,
            13.903102512127184,
            14.246565411135554,
            15.302192317937083,
            15.833955838466107,
            16.612778444897927,
            17.131938436144484,
            17.20802176558339,
            18.924053567102824
        ]
    },
    "born_effective_charge": {
        "avg_abs_trace": 1.7686024074074074,
        "tensors": [
            [
                [
                    1.20672,
                    -0.09835,
                    0.04821
                ],
                [
                    -0.11662,
                    1.26471,
                    -0.04004
                ],
                [
                    0.0443,
                    -0.01507,
                    1.12928
                ]
            ],
            [
                [
                    1.20668,
                    0.09841,
                    0.04818
                ],
                [
                    0.11662,
                    1.26471,
                    0.04004
                ],
                [
                    0.04437,
                    0.01503,
                    1.12924
                ]
            ],
            [
                [
                    1.20668,
                    -0.09841,
                    0.04818
                ],
                [
                    -0.11665,
                    1.26469,
                    -0.04002
                ],
                [
                    0.04437,
                    -0.01503,
                    1.12924
                ]
            ],
            [
                [
                    1.20672,
                    0.09835,
                    0.04821
                ],
                [
                    0.11665,
                    1.26469,
                    0.04002
                ],
                [
                    0.0443,
                    0.01507,
                    1.12928
                ]
            ],
            [
                [
                    1.75831,
                    -4e-05,
                    -0.06244
                ],
                [
                    0.0,
                    1.30836,
                    0.0
                ],
                [
                    -0.08818,
                    1e-05,
                    2.30471
                ]
            ],
            [
                [
                    1.75831,
                    4e-05,
                    -0.06244
                ],
                [
                    0.0,
                    1.30833,
                    0.0
                ],
                [
                    -0.08818,
                    -1e-05,
                    2.30471
                ]
            ],
            [
                [
                    1.95636,
                    -0.13372,
                    0.02562
                ],
                [
                    -0.23817,
                    1.89445,
                    0.10224
                ],
                [
                    0.02072,
                    0.26523,
                    1.80096
                ]
            ],
            [
                [
                    1.95629,
                    0.13378,
                    0.0256
                ],
                [
                    0.23817,
                    1.89445,
                    -0.10224
                ],
                [
                    0.02065,
                    -0.26519,
                    1.80086
                ]
            ],
            [
                [
                    1.95629,
                    -0.13378,
                    0.0256
                ],
                [
                    -0.23815,
                    1.89453,
                    0.10225
                ],
                [
                    0.02065,
                    0.26519,
                    1.80086
                ]
            ],
            [
                [
                    1.95636,
                    0.13372,
                    0.02562
                ],
                [
                    0.23815,
                    1.89453,
                    -0.10225
                ],
                [
                    0.02072,
                    -0.26523,
                    1.80096
                ]
            ],
            [
                [
                    -2.31065,
                    0.32615,
                    -0.08012
                ],
                [
                    0.23457,
                    -1.58215,
                    0.08459
                ],
                [
                    -0.07574,
                    0.01892,
                    -1.97538
                ]
            ],
            [
                [
                    -2.31068,
                    -0.32608,
                    -0.08003
                ],
                [
                    -0.23457,
                    -1.58215,
                    -0.08459
                ],
                [
                    -0.07575,
                    -0.01917,
                    -1.97547
                ]
            ],
            [
                [
                    -2.31068,
                    0.32608,
                    -0.08003
                ],
                [
                    0.23461,
                    -1.5819,
                    0.08444
                ],
                [
                    -0.07575,
                    0.01917,
                    -1.97547
                ]
            ],
            [
                [
                    -2.31065,
                    -0.32615,
                    -0.08012
                ],
                [
                    -0.23461,
                    -1.5819,
                    -0.08444
                ],
                [
                    -0.07574,
                    -0.01892,
                    -1.97538
                ]
            ],
            [
                [
                    -1.73152,
                    -0.2531,
                    0.03745
                ],
                [
                    -0.33617,
                    -2.23133,
                    -0.42846
                ],
                [
                    0.05477,
                    -0.37248,
                    -2.1071
                ]
            ],
            [
                [
                    -1.73152,
                    0.25305,
                    0.03753
                ],
                [
                    0.33617,
                    -2.23133,
                    0.42846
                ],
                [
                    0.05485,
                    0.37258,
                    -2.10709
                ]
            ],
            [
                [
                    -1.73152,
                    -0.25305,
                    0.03753
                ],
                [
                    -0.33637,
                    -2.23134,
                    -0.42821
                ],
                [
                    0.05485,
                    -0.37258,
                    -2.10709
                ]
            ],
            [
                [
                    -1.73152,
                    0.2531,
                    0.03745
                ],
                [
                    0.33637,
                    -2.23134,
                    0.42821
                ],
                [
                    0.05477,
                    0.37248,
                    -2.1071
                ]
            ]
        ]
    },
    "band_gap": 1.9104,
    "is_direct": true,
    "formula": "K2Zn3O4"
}