{
    "mp_id": "mp-29893",
    "nelements": 3,
    "nsites": 28,
    "elements": [
        "Hg",
        "Mo",
        "O"
    ],
    "structure": {
        "@module": "pymatgen.core.structure",
        "@class": "Structure",
        "charge": null,
        "lattice": {
            "matrix": [
                [
                    5.20307196,
                    0.0,
                    -0.00025086
                ],
                [
                    0.0,
                    8.98383506,
                    0.0
                ],
                [
                    -1.99997895,
                    0.0,
                    10.66367915
                ]
            ],
            "a": 5.20307196604746,
            "b": 8.98383506,
            "c": 10.849606850692233,
            "alpha": 90.0,
            "beta": 100.6252159493708,
            "gamma": 90.0,
            "volume": 498.45360870750307
        },
        "sites": [
            {
                "species": [
                    {
                        "element": "Hg",
                        "occu": 1
                    }
                ],
                "abc": [
                    0.65594843,
                    0.11835493,
                    0.93947928
                ],
                "xyz": [
                    1.534008099377867,
                    1.063281169657846,
                    10.018141058769862
                ],
                "label": "Hg",
                "properties": {}
            },
            {
                "species": [
                    {
                        "element": "Hg",
                        "occu": 1
                    }
                ],
                "abc": [
                    0.34405157,
                    0.61835493,
                    0.56052072
                ],
                "xyz": [
                    0.669095435622133,
                    5.555198699657846,
                    5.977126806230138
                ],
                "label": "Hg",
                "properties": {}
            },
            {
                "species": [
                    {
                        "element": "Hg",
                        "occu": 1
                    }
                ],
                "abc": [
                    0.34405157,
                    0.88164507,
                    0.06052072
                ],
                "xyz": [
                    1.669084910622133,
                    7.920553890342155,
                    0.6452872312301378
                ],
                "label": "Hg",
                "properties": {}
            },
            {
                "species": [
                    {
                        "element": "Hg",
                        "occu": 1
                    }
                ],
                "abc": [
                    0.65594843,
                    0.38164507,
                    0.43947928
                ],
                "xyz": [
                    2.533997574377867,
                    3.4286363603421544,
                    4.686301483769863
                ],
                "label": "Hg",
                "properties": {}
            },
            {
                "species": [
                    {
                        "element": "Hg",
                        "occu": 1
                    }
                ],
                "abc": [
                    0.44694431,
                    0.20672699,
                    0.58032289
                ],
                "xyz": [
                    1.1648498428393819,
                    1.8572011806102695,
                    6.1882649819111375
                ],
                "label": "Hg",
                "properties": {}
            },
            {
                "species": [
                    {
                        "element": "Hg",
                        "occu": 1
                    }
                ],
                "abc": [
                    0.55305569,
                    0.70672699,
                    0.91967711
                ],
                "xyz": [
                    1.038253692160618,
                    6.34911871061027,
                    9.807002883088861
                ],
                "label": "Hg",
                "properties": {}
            },
            {
                "species": [
                    {
                        "element": "Hg",
                        "occu": 1
                    }
                ],
                "abc": [
                    0.55305569,
                    0.79327301,
                    0.41967711
                ],
                "xyz": [
                    2.038243167160618,
                    7.126633879389731,
                    4.475163308088864
                ],
                "label": "Hg",
                "properties": {}
            },
            {
                "species": [
                    {
                        "element": "Hg",
                        "occu": 1
                    }
                ],
                "abc": [
                    0.44694431,
                    0.29327301,
                    0.08032289
                ],
                "xyz": [
                    2.164839317839382,
                    2.634716349389731,
                    0.8564254069111368
                ],
                "label": "Hg",
                "properties": {}
            },
            {
                "species": [
                    {
                        "element": "Mo",
                        "occu": 1
                    }
                ],
                "abc": [
                    0.03077883,
                    0.95328674,
                    0.71850236
                ],
                "xyz": [
                    -1.2768451281907152,
                    8.564170837045106,
                    7.661870914380501
                ],
                "label": "Mo",
                "properties": {}
            },
            {
                "species": [
                    {
                        "element": "Mo",
                        "occu": 1
                    }
                ],
                "abc": [
                    0.96922117,
                    0.45328674,
                    0.78149764
                ],
                "xyz": [
                    3.4799486631907146,
                    4.072253307045105,
                    8.3333969506195
                ],
                "label": "Mo",
                "properties": {}
            },
            {
                "species": [
                    {
                        "element": "Mo",
                        "occu": 1
                    }
                ],
                "abc": [
                    0.96922117,
                    0.04671326,
                    0.28149764
                ],
                "xyz": [
                    4.479938138190715,
                    0.41966422295489564,
                    3.0015573756195
                ],
                "label": "Mo",
                "properties": {}
            },
            {
                "species": [
                    {
                        "element": "Mo",
                        "occu": 1
                    }
                ],
                "abc": [
                    0.03077883,
                    0.54671326,
                    0.21850236
                ],
                "xyz": [
                    -0.2768556531907152,
                    4.911581752954896,
                    2.3300313393805
                ],
                "label": "Mo",
                "properties": {}
            },
            {
                "species": [
                    {
                        "element": "O",
                        "occu": 1
                    }
                ],
                "abc": [
                    0.30058646,
                    0.0846674,
                    0.72447728
                ],
                "xyz": [
                    0.11503367182840551,
                    0.7606379565590441,
                    7.725517860265357
                ],
                "label": "O",
                "properties": {}
            },
            {
                "species": [
                    {
                        "element": "O",
                        "occu": 1
                    }
                ],
                "abc": [
                    0.69941354,
                    0.5846674,
                    0.77552272
                ],
                "xyz": [
                    2.0880698631715946,
                    5.252555486559044,
                    8.269750004734645
                ],
                "label": "O",
                "properties": {}
            },
            {
                "species": [
                    {
                        "element": "O",
                        "occu": 1
                    }
                ],
                "abc": [
                    0.69941354,
                    0.9153326,
                    0.27552272
                ],
                "xyz": [
                    3.0880593381715946,
                    8.223197103440956,
                    2.937910429734644
                ],
                "label": "O",
                "properties": {}
            },
            {
                "species": [
                    {
                        "element": "O",
                        "occu": 1
                    }
                ],
                "abc": [
                    0.30058646,
                    0.4153326,
                    0.22447728
                ],
                "xyz": [
                    1.1150231468284058,
                    3.7312795734409563,
                    2.393678285265356
                ],
                "label": "O",
                "properties": {}
            },
            {
                "species": [
                    {
                        "element": "O",
                        "occu": 1
                    }
                ],
                "abc": [
                    0.21544869,
                    0.48591079,
                    0.91383035
                ],
                "xyz": [
                    -0.7066464261134,
                    4.3653423912342975,
                    9.744739602473828
                ],
                "label": "O",
                "properties": {}
            },
            {
                "species": [
                    {
                        "element": "O",
                        "occu": 1
                    }
                ],
                "abc": [
                    0.78455131,
                    0.98591079,
                    0.58616965
                ],
                "xyz": [
                    2.9097499611133997,
                    8.857259921234299,
                    6.250528262526171
                ],
                "label": "O",
                "properties": {}
            },
            {
                "species": [
                    {
                        "element": "O",
                        "occu": 1
                    }
                ],
                "abc": [
                    0.78455131,
                    0.51408921,
                    0.08616965
                ],
                "xyz": [
                    3.9097394361133997,
                    4.618492668765702,
                    0.9186886875261709
                ],
                "label": "O",
                "properties": {}
            },
            {
                "species": [
                    {
                        "element": "O",
                        "occu": 1
                    }
                ],
                "abc": [
                    0.21544869,
                    0.01408921,
                    0.41383035
                ],
                "xyz": [
                    0.2933430488865999,
                    0.12657513876570262,
                    4.412900027473829
                ],
                "label": "O",
                "properties": {}
            },
            {
                "species": [
                    {
                        "element": "O",
                        "occu": 1
                    }
                ],
                "abc": [
                    0.15539107,
                    0.77120799,
                    0.70768299
                ],
                "xyz": [
                    -0.6068401641216633,
                    6.928405379114129,
                    7.546465363868839
                ],
                "label": "O",
                "properties": {}
            },
            {
                "species": [
                    {
                        "element": "O",
                        "occu": 1
                    }
                ],
                "abc": [
                    0.84460893,
                    0.27120799,
                    0.79231701
                ],
                "xyz": [
                    2.8099436991216633,
                    2.4364878491141297,
                    8.448802501131162
                ],
                "label": "O",
                "properties": {}
            },
            {
                "species": [
                    {
                        "element": "O",
                        "occu": 1
                    }
                ],
                "abc": [
                    0.84460893,
                    0.22879201,
                    0.29231701
                ],
                "xyz": [
                    3.8099331741216638,
                    2.0554296808858705,
                    3.1169629261311615
                ],
                "label": "O",
                "properties": {}
            },
            {
                "species": [
                    {
                        "element": "O",
                        "occu": 1
                    }
                ],
                "abc": [
                    0.15539107,
                    0.72879201,
                    0.20768299
                ],
                "xyz": [
                    0.39314931087833666,
                    6.547347210885872,
                    2.214625788868838
                ],
                "label": "O",
                "properties": {}
            },
            {
                "species": [
                    {
                        "element": "O",
                        "occu": 1
                    }
                ],
                "abc": [
                    0.10297369,
                    0.04438913,
                    0.13817293
                ],
                "xyz": [
                    0.25943656759690886,
                    0.3987846223768978,
                    1.473405960755536
                ],
                "label": "O",
                "properties": {}
            },
            {
                "species": [
                    {
                        "element": "O",
                        "occu": 1
                    }
                ],
                "abc": [
                    0.89702631,
                    0.54438913,
                    0.36182707
                ],
                "xyz": [
                    3.943645917403091,
                    4.890702152376898,
                    3.8581827542444636
                ],
                "label": "O",
                "properties": {}
            },
            {
                "species": [
                    {
                        "element": "O",
                        "occu": 1
                    }
                ],
                "abc": [
                    0.89702631,
                    0.95561087,
                    0.86182707
                ],
                "xyz": [
                    2.943656442403091,
                    8.585050437623103,
                    9.190022329244464
                ],
                "label": "O",
                "properties": {}
            },
            {
                "species": [
                    {
                        "element": "O",
                        "occu": 1
                    }
                ],
                "abc": [
                    0.10297369,
                    0.45561087,
                    0.63817293
                ],
                "xyz": [
                    -0.7405529074030911,
                    4.093132907623103,
                    6.805245535755536
                ],
                "label": "O",
                "properties": {}
            }
        ]
    },
    "spacegroup": {
        "source": "spglib",
        "symbol": "P2_1/c",
        "number": 14,
        "point_group": "2/m",
        "crystal_system": "monoclinic",
        "hall": "-P 2ybc"
    },
    "dielectric": {
        "epsilon_ionic": [
            [
                8.80789057,
                1e-08,
                1.69229237
            ],
            [
                1e-08,
                7.78105668,
                1e-07
            ],
            [
                1.69229237,
                1e-07,
                7.54537905
            ]
        ],
        "epsilon_ionic_avg": 8.044775433333333,
        "epsilon_ionic_eig": [
            9.982828957951266,
            6.370440662048732,
            7.781056679999999
        ],
        "epsilon_electronic": [
            [
                5.56216123,
                0.0,
                -0.8508517
            ],
            [
                0.0,
                5.93713038,
                0.0
            ],
            [
                -0.85084799,
                0.0,
                5.35412994
            ]
        ],
        "epsilon_electronic_avg": 5.617807183333333,
        "epsilon_electronic_eig": [
            6.315329761905902,
            4.600961408094098,
            5.93713038
        ]
    },
    "phonon": {
        "lowest_freq": -0.10339006099075193,
        "frequency": [
            -0.10339006099075193,
            -0.059581219024851126,
            -0.023352198799813283,
            0.9010650548119011,
            1.0024007997776951,
            1.013116151187253,
            1.0466643626393364,
            1.1811424926217808,
            1.195589492613961,
            1.201172984032308,
            1.3055791400087635,
            1.3120209208047566,
            1.3449823405322803,
            1.3541973857731664,
            1.4255089121236735,
            1.563415297563357,
            1.6391721787658629,
            1.751062053012879,
            1.7800240360328434,
            2.0147485929197027,
            2.1256528006884525,
            2.164115398401633,
            2.179817869841061,
            2.2286752646494796,
            2.235927713006842,
            2.5688865755941803,
            2.709289624970074,
            2.7758617771945966,
            2.799906480985253,
            2.84135282343314,
            3.0684418369560587,
            3.166641280724629,
            3.182242382624559,
            3.611105319935381,
            3.929739224274982,
            4.099720706358173,
            4.202901781622757,
            4.468831299634031,
            4.6179016677608455,
            4.715999890432806,
            5.1830407882383565,
            5.207401316842491,
            5.2744180509693,
            5.836384636842584,
            5.842027531654494,
            5.992518549217549,
            6.763368938349342,
            6.933652522648984,
            7.781394715658838,
            7.790503968984325,
            8.183638350107243,
            8.415226738339644,
            8.519858676533989,
            8.835407859821794,
            8.908175012745371,
            8.930294642612962,
            9.100144691349055,
            9.182724654423886,
            9.291112109392186,
            9.339291606110685,
            9.994709014518529,
            10.007120448640164,
            10.160099952569638,
            10.180706344394713,
            10.581430987306208,
            10.68016045667452,
            10.687829635245683,
            11.308285304486915,
            21.65901707954063,
            21.733184222437846,
            21.778913152873155,
            22.24722328838836,
            22.42780301281331,
            22.582673896198113,
            23.28335372044853,
            23.886451948439415,
            24.083510040363112,
            24.30625248384155,
            24.695205515264345,
            25.143475756681894,
            26.175400846824893,
            26.1796208377961,
            26.23877456708211,
            26.504583242017738
        ]
    },
    "born_effective_charge": {
        "avg_abs_trace": 2.4041085714285715,
        "tensors": [
            [
                [
                    2.06216,
                    -0.36827,
                    -0.59382
                ],
                [
                    0.03437,
                    1.7695,
                    -0.29633
                ],
                [
                    -0.56589,
                    0.26156,
                    1.96566
                ]
            ],
            [
                [
                    2.06198,
                    0.3683,
                    -0.59395
                ],
                [
                    -0.03437,
                    1.7695,
                    0.29633
                ],
                [
                    -0.56563,
                    -0.26159,
                    1.96584
                ]
            ],
            [
                [
                    2.06198,
                    -0.3683,
                    -0.59395
                ],
                [
                    0.03508,
                    1.76978,
                    -0.29626
                ],
                [
                    -0.56563,
                    0.26159,
                    1.96584
                ]
            ],
            [
                [
                    2.06216,
                    0.36827,
                    -0.59382
                ],
                [
                    -0.03508,
                    1.76978,
                    0.29626
                ],
                [
                    -0.56589,
                    -0.26156,
                    1.96566
                ]
            ],
            [
                [
                    1.76621,
                    0.50831,
                    -0.42817
                ],
                [
                    0.48885,
                    1.99166,
                    -0.38315
                ],
                [
                    -0.13982,
                    -0.45147,
                    1.97817
                ]
            ],
            [
                [
                    1.7662,
                    -0.50832,
                    -0.42811
                ],
                [
                    -0.48885,
                    1.99166,
                    0.38315
                ],
                [
                    -0.1398,
                    0.4514,
                    1.97821
                ]
            ],
            [
                [
                    1.7662,
                    0.50832,
                    -0.42811
                ],
                [
                    0.48857,
                    1.99188,
                    -0.383
                ],
                [
                    -0.1398,
                    -0.4514,
                    1.97821
                ]
            ],
            [
                [
                    1.76621,
                    -0.50831,
                    -0.42817
                ],
                [
                    -0.48857,
                    1.99188,
                    0.383
                ],
                [
                    -0.13982,
                    0.45147,
                    1.97817
                ]
            ],
            [
                [
                    4.85782,
                    -0.05603,
                    -0.06014
                ],
                [
                    0.22421,
                    4.51785,
                    0.36033
                ],
                [
                    -0.52925,
                    -0.61383,
                    4.33357
                ]
            ],
            [
                [
                    4.85767,
                    0.05607,
                    -0.06013
                ],
                [
                    -0.22421,
                    4.51785,
                    -0.36033
                ],
                [
                    -0.52917,
                    0.61374,
                    4.33388
                ]
            ],
            [
                [
                    4.85767,
                    -0.05607,
                    -0.06013
                ],
                [
                    0.22363,
                    4.51824,
                    0.3592
                ],
                [
                    -0.52917,
                    -0.61374,
                    4.33388
                ]
            ],
            [
                [
                    4.85782,
                    0.05603,
                    -0.06014
                ],
                [
                    -0.22363,
                    4.51824,
                    -0.3592
                ],
                [
                    -0.52925,
                    0.61383,
                    4.33357
                ]
            ],
            [
                [
                    -2.93678,
                    -2.06671,
                    0.36586
                ],
                [
                    -2.07355,
                    -2.47626,
                    0.52782
                ],
                [
                    0.57397,
                    0.80528,
                    -1.55383
                ]
            ],
            [
                [
                    -2.93668,
                    2.06674,
                    0.36594
                ],
                [
                    2.07355,
                    -2.47626,
                    -0.52782
                ],
                [
                    0.57383,
                    -0.80515,
                    -1.55405
                ]
            ],
            [
                [
                    -2.93668,
                    -2.06674,
                    0.36594
                ],
                [
                    -2.0727,
                    -2.47633,
                    0.52762
                ],
                [
                    0.57383,
                    0.80515,
                    -1.55405
                ]
            ],
            [
                [
                    -2.93678,
                    2.06671,
                    0.36586
                ],
                [
                    2.0727,
                    -2.47633,
                    -0.52762
                ],
                [
                    0.57397,
                    -0.80528,
                    -1.55383
                ]
            ],
            [
                [
                    -1.71169,
                    -0.31563,
                    -1.67043
                ],
                [
                    -0.18764,
                    -1.28225,
                    0.24052
                ],
                [
                    -1.41566,
                    -0.32059,
                    -2.2822
                ]
            ],
            [
                [
                    -1.71168,
                    0.31558,
                    -1.67052
                ],
                [
                    0.18764,
                    -1.28225,
                    -0.24052
                ],
                [
                    -1.41555,
                    0.32066,
                    -2.282
                ]
            ],
            [
                [
                    -1.71168,
                    -0.31558,
                    -1.67052
                ],
                [
                    -0.18865,
                    -1.28301,
                    0.23894
                ],
                [
                    -1.41555,
                    -0.32066,
                    -2.282
                ]
            ],
            [
                [
                    -1.71169,
                    0.31563,
                    -1.67043
                ],
                [
                    0.18865,
                    -1.28301,
                    -0.23894
                ],
                [
                    -1.41566,
                    0.32059,
                    -2.2822
                ]
            ],
            [
                [
                    -1.39584,
                    1.51228,
                    0.37917
                ],
                [
                    1.42174,
                    -3.33463,
                    -0.46098
                ],
                [
                    0.15668,
                    -0.2781,
                    -1.17118
                ]
            ],
            [
                [
                    -1.3958,
                    -1.51195,
                    0.37909
                ],
                [
                    -1.42174,
                    -3.33463,
                    0.46098
                ],
                [
                    0.15682,
                    0.27817,
                    -1.17119
                ]
            ],
            [
                [
                    -1.3958,
                    1.51195,
                    0.37909
                ],
                [
                    1.42198,
                    -3.33467,
                    -0.46046
                ],
                [
                    0.15682,
                    -0.27817,
                    -1.17119
                ]
            ],
            [
                [
                    -1.39584,
                    -1.51228,
                    0.37917
                ],
                [
                    -1.42198,
                    -3.33467,
                    0.46046
                ],
                [
                    0.15668,
                    0.2781,
                    -1.17118
                ]
            ],
            [
                [
                    -2.64173,
                    0.47501,
                    2.00756
                ],
                [
                    0.63077,
                    -1.18608,
                    -0.39074
                ],
                [
                    1.9197,
                    -0.32232,
                    -3.27045
                ]
            ],
            [
                [
                    -2.64184,
                    -0.47497,
                    2.00767
                ],
                [
                    -0.63077,
                    -1.18608,
                    0.39074
                ],
                [
                    1.91978,
                    0.32226,
                    -3.27043
                ]
            ],
            [
                [
                    -2.64184,
                    0.47497,
                    2.00767
                ],
                [
                    0.63176,
                    -1.18568,
                    -0.39143
                ],
                [
                    1.91978,
                    -0.32226,
                    -3.27043
                ]
            ],
            [
                [
                    -2.64173,
                    -0.47501,
                    2.00756
                ],
                [
                    -0.63176,
                    -1.18568,
                    0.39143
                ],
                [
                    1.9197,
                    0.32232,
                    -3.27045
                ]
            ]
        ]
    },
    "band_gap": 1.7610000000000001,
    "is_direct": false,
    "formula": "Hg2MoO4"
}