{
    "mp_id": "mp-28611",
    "nelements": 3,
    "nsites": 20,
    "elements": [
        "O",
        "Ta",
        "Th"
    ],
    "structure": {
        "@module": "pymatgen.core.structure",
        "@class": "Structure",
        "charge": null,
        "lattice": {
            "matrix": [
                [
                    7.71314428,
                    -1.97149738,
                    0.00076539
                ],
                [
                    7.71314428,
                    1.97149738,
                    0.00076539
                ],
                [
                    -0.82689266,
                    0.0,
                    8.54094306
                ]
            ],
            "a": 7.961117835408884,
            "b": 7.961117835408884,
            "c": 8.580877567319325,
            "alpha": 95.35160142336552,
            "beta": 95.35160142336552,
            "gamma": 28.675898252478405,
            "volume": 259.75723575286594
        },
        "sites": [
            {
                "species": [
                    {
                        "element": "Th",
                        "occu": 1
                    }
                ],
                "abc": [
                    0.67914632,
                    0.67914632,
                    0.66724076
                ],
                "xyz": [
                    9.924970619885277,
                    0.0,
                    5.699904962074855
                ],
                "label": "Th",
                "properties": {}
            },
            {
                "species": [
                    {
                        "element": "Th",
                        "occu": 1
                    }
                ],
                "abc": [
                    0.32085368,
                    0.32085368,
                    0.33275924
                ],
                "xyz": [
                    4.674425280114722,
                    0.0,
                    2.842568877925145
                ],
                "label": "Th",
                "properties": {}
            },
            {
                "species": [
                    {
                        "element": "Ta",
                        "occu": 1
                    }
                ],
                "abc": [
                    0.89236452,
                    0.89236452,
                    0.01136873
                ],
                "xyz": [
                    13.75647186683537,
                    0.0,
                    0.0984656893544394
                ],
                "label": "Ta",
                "properties": {}
            },
            {
                "species": [
                    {
                        "element": "Ta",
                        "occu": 1
                    }
                ],
                "abc": [
                    0.10763548,
                    0.10763548,
                    0.98863127
                ],
                "xyz": [
                    0.8429240331646308,
                    0.0,
                    8.44400815064556
                ],
                "label": "Ta",
                "properties": {}
            },
            {
                "species": [
                    {
                        "element": "Ta",
                        "occu": 1
                    }
                ],
                "abc": [
                    0.92736574,
                    0.92736574,
                    0.63569912
                ],
                "xyz": [
                    13.780156569601477,
                    0.0,
                    5.430889580139584
                ],
                "label": "Ta",
                "properties": {}
            },
            {
                "species": [
                    {
                        "element": "Ta",
                        "occu": 1
                    }
                ],
                "abc": [
                    0.07263426,
                    0.07263426,
                    0.36430088
                ],
                "xyz": [
                    0.8192393303985248,
                    0.0,
                    3.1115842598604155
                ],
                "label": "Ta",
                "properties": {}
            },
            {
                "species": [
                    {
                        "element": "O",
                        "occu": 1
                    }
                ],
                "abc": [
                    0.98945411,
                    0.98945411,
                    0.85716154
                ],
                "xyz": [
                    14.554824031877686,
                    0.0,
                    7.322482542924418
                ],
                "label": "O",
                "properties": {}
            },
            {
                "species": [
                    {
                        "element": "O",
                        "occu": 1
                    }
                ],
                "abc": [
                    0.01054589,
                    0.01054589,
                    0.14283846
                ],
                "xyz": [
                    0.04457186812231481,
                    0.0,
                    1.2199912970755817
                ],
                "label": "O",
                "properties": {}
            },
            {
                "species": [
                    {
                        "element": "O",
                        "occu": 1
                    }
                ],
                "abc": [
                    0.94214836,
                    0.94214836,
                    0.39476356
                ],
                "xyz": [
                    14.207425377491292,
                    0.0,
                    3.3730953099894143
                ],
                "label": "O",
                "properties": {}
            },
            {
                "species": [
                    {
                        "element": "O",
                        "occu": 1
                    }
                ],
                "abc": [
                    0.05785164,
                    0.05785164,
                    0.60523644
                ],
                "xyz": [
                    0.391970522508708,
                    0.0,
                    5.169378530010585
                ],
                "label": "O",
                "properties": {}
            },
            {
                "species": [
                    {
                        "element": "O",
                        "occu": 1
                    }
                ],
                "abc": [
                    0.60686581,
                    0.60686581,
                    0.95110032
                ],
                "xyz": [
                    8.575229228726482,
                    0.0,
                    8.124222655512412
                ],
                "label": "O",
                "properties": {}
            },
            {
                "species": [
                    {
                        "element": "O",
                        "occu": 1
                    }
                ],
                "abc": [
                    0.39313419,
                    0.39313419,
                    0.04889968
                ],
                "xyz": [
                    6.024166671273518,
                    0.0,
                    0.418251184487589
                ],
                "label": "O",
                "properties": {}
            },
            {
                "species": [
                    {
                        "element": "O",
                        "occu": 1
                    }
                ],
                "abc": [
                    0.4203367,
                    0.4203367,
                    0.61455552
                ],
                "xyz": [
                    5.976063777907669,
                    0.0,
                    5.2495271465423174
                ],
                "label": "O",
                "properties": {}
            },
            {
                "species": [
                    {
                        "element": "O",
                        "occu": 1
                    }
                ],
                "abc": [
                    0.5796633,
                    0.5796633,
                    0.38544448
                ],
                "xyz": [
                    8.62333212209233,
                    0.0,
                    3.2929466934576825
                ],
                "label": "O",
                "properties": {}
            },
            {
                "species": [
                    {
                        "element": "O",
                        "occu": 1
                    }
                ],
                "abc": [
                    0.1939547,
                    0.1939547,
                    0.49064198
                ],
                "xyz": [
                    2.586292917818365,
                    0.0,
                    4.190842116001325
                ],
                "label": "O",
                "properties": {}
            },
            {
                "species": [
                    {
                        "element": "O",
                        "occu": 1
                    }
                ],
                "abc": [
                    0.8060453,
                    0.8060453,
                    0.50935802
                ],
                "xyz": [
                    12.013102982181636,
                    0.0,
                    4.3516317239986755
                ],
                "label": "O",
                "properties": {}
            },
            {
                "species": [
                    {
                        "element": "O",
                        "occu": 1
                    }
                ],
                "abc": [
                    0.19411487,
                    0.19411487,
                    0.84015787
                ],
                "xyz": [
                    2.299751622462653,
                    0.0,
                    7.17603767624158
                ],
                "label": "O",
                "properties": {}
            },
            {
                "species": [
                    {
                        "element": "O",
                        "occu": 1
                    }
                ],
                "abc": [
                    0.80588513,
                    0.80588513,
                    0.15984213
                ],
                "xyz": [
                    12.299644277537345,
                    0.0,
                    1.3664361637584193
                ],
                "label": "O",
                "properties": {}
            },
            {
                "species": [
                    {
                        "element": "O",
                        "occu": 1
                    }
                ],
                "abc": [
                    0.16796823,
                    0.16796823,
                    0.19735319
                ],
                "xyz": [
                    2.4279364806538632,
                    0.0,
                    1.685839480906481
                ],
                "label": "O",
                "properties": {}
            },
            {
                "species": [
                    {
                        "element": "O",
                        "occu": 1
                    }
                ],
                "abc": [
                    0.83203177,
                    0.83203177,
                    0.80264681
                ],
                "xyz": [
                    12.171459419346135,
                    0.0,
                    6.85663435909352
                ],
                "label": "O",
                "properties": {}
            }
        ]
    },
    "spacegroup": {
        "source": "spglib",
        "symbol": "C2/m",
        "number": 12,
        "point_group": "2/m",
        "crystal_system": "monoclinic",
        "hall": "-C 2y"
    },
    "dielectric": {
        "epsilon_ionic": [
            [
                11.90116253,
                -0.0,
                -0.69525581
            ],
            [
                -0.0,
                26.29798655,
                -1.1e-07
            ],
            [
                -0.69525581,
                -1.1e-07,
                15.67989553
            ]
        ],
        "epsilon_ionic_avg": 17.959681536666668,
        "epsilon_ionic_eig": [
            11.777301170898843,
            15.803756889101152,
            26.297986550000005
        ],
        "epsilon_electronic": [
            [
                4.84686268,
                0.0,
                -0.11036649
            ],
            [
                0.0,
                5.52993054,
                0.0
            ],
            [
                -0.11037733,
                0.0,
                5.33832316
            ]
        ],
        "epsilon_electronic_avg": 5.238372126666666,
        "epsilon_electronic_eig": [
            4.823213430546684,
            5.361972409453316,
            5.52993054
        ]
    },
    "phonon": {
        "lowest_freq": -0.04160618190582058,
        "frequency": [
            -0.04160618190582058,
            -0.009372217342212275,
            -0.009006333477841683,
            1.8876950183997026,
            2.244020386094467,
            2.6341990519711143,
            2.75692266620276,
            3.0230558143233983,
            3.1111490510771653,
            3.124660018453805,
            3.2441449988324558,
            3.879560353463571,
            3.9025374864617834,
            4.535383760908181,
            5.124475829851482,
            5.357112049000881,
            5.670819644767346,
            5.908775902670719,
            6.1858130387325545,
            6.995217733106314,
            6.997386690578492,
            7.194109840441651,
            7.394236512600495,
            7.646454457053949,
            8.243527931364167,
            8.341139206253446,
            8.35934793373392,
            8.460607434261803,
            8.808557646530476,
            9.201588582622676,
            9.695653246956581,
            9.823039856351086,
            10.15371943302098,
            10.161548290749428,
            10.325148085810934,
            11.211875709325358,
            11.737336146412808,
            11.889736861367703,
            12.010111927655322,
            12.51705909463682,
            12.735435116540264,
            13.341059333451092,
            13.374620312577123,
            13.818837427720396,
            14.510724125497097,
            15.993660670772949,
            16.919186068136543,
            17.321739886174978,
            17.885298130187223,
            17.940650003387017,
            17.98226405066653,
            18.005948543585294,
            18.12145670188318,
            18.782116949712176,
            19.810748833895794,
            20.362602761662274,
            21.40739534938022,
            21.54822361155644,
            22.875935124814987,
            23.275141274628503
        ]
    },
    "born_effective_charge": {
        "avg_abs_trace": 3.8195571666666672,
        "tensors": [
            [
                [
                    5.54121,
                    -0.0,
                    -0.28681
                ],
                [
                    -0.00031,
                    5.88555,
                    -0.0001
                ],
                [
                    0.32176,
                    0.0,
                    5.80313
                ]
            ],
            [
                [
                    5.54132,
                    -0.0,
                    -0.2869
                ],
                [
                    0.00031,
                    5.88555,
                    0.0001
                ],
                [
                    0.32162,
                    0.0,
                    5.80335
                ]
            ],
            [
                [
                    5.37442,
                    -0.0,
                    -0.0456
                ],
                [
                    -9e-05,
                    7.6885,
                    -0.00081
                ],
                [
                    -0.49907,
                    -0.0,
                    6.8166
                ]
            ],
            [
                [
                    5.37451,
                    0.0,
                    -0.04556
                ],
                [
                    9e-05,
                    7.6885,
                    0.00081
                ],
                [
                    -0.49894,
                    0.0,
                    6.81692
                ]
            ],
            [
                [
                    5.72655,
                    -0.0,
                    -0.04195
                ],
                [
                    0.00036,
                    7.84921,
                    0.00049
                ],
                [
                    -0.39936,
                    0.0,
                    6.60764
                ]
            ],
            [
                [
                    5.7265,
                    -0.0,
                    -0.04207
                ],
                [
                    -0.00036,
                    7.84921,
                    -0.00049
                ],
                [
                    -0.39939,
                    0.0,
                    6.60803
                ]
            ],
            [
                [
                    -2.96514,
                    -0.0,
                    -0.6089
                ],
                [
                    -3e-05,
                    -1.22806,
                    5e-05
                ],
                [
                    -0.63507,
                    0.0,
                    -3.91351
                ]
            ],
            [
                [
                    -2.965,
                    -0.0,
                    -0.60898
                ],
                [
                    3e-05,
                    -1.22806,
                    -5e-05
                ],
                [
                    -0.63528,
                    0.0,
                    -3.91366
                ]
            ],
            [
                [
                    -3.07557,
                    -0.0,
                    0.42257
                ],
                [
                    0.00016,
                    -1.88561,
                    8e-05
                ],
                [
                    0.47672,
                    0.0,
                    -2.35551
                ]
            ],
            [
                [
                    -3.07509,
                    -0.0,
                    0.42274
                ],
                [
                    -0.00016,
                    -1.88561,
                    -8e-05
                ],
                [
                    0.47724,
                    0.0,
                    -2.35578
                ]
            ],
            [
                [
                    -1.23465,
                    -0.0,
                    0.29733
                ],
                [
                    -1e-05,
                    -5.81516,
                    -0.00146
                ],
                [
                    0.33189,
                    0.0,
                    -1.62429
                ]
            ],
            [
                [
                    -1.23451,
                    -0.0,
                    0.29733
                ],
                [
                    1e-05,
                    -5.81516,
                    0.00146
                ],
                [
                    0.33187,
                    0.0,
                    -1.62438
                ]
            ],
            [
                [
                    -1.32241,
                    -0.0,
                    -0.25119
                ],
                [
                    -0.0005,
                    -6.11403,
                    -0.00109
                ],
                [
                    -0.18192,
                    0.0,
                    -1.70488
                ]
            ],
            [
                [
                    -1.32237,
                    -0.0,
                    -0.25117
                ],
                [
                    0.0005,
                    -6.11403,
                    0.00109
                ],
                [
                    -0.18198,
                    0.0,
                    -1.70495
                ]
            ],
            [
                [
                    -3.26294,
                    -0.0,
                    -0.06467
                ],
                [
                    -9e-05,
                    -2.50465,
                    3e-05
                ],
                [
                    -0.11479,
                    0.0,
                    -2.44673
                ]
            ],
            [
                [
                    -3.26284,
                    -0.0,
                    -0.06467
                ],
                [
                    9e-05,
                    -2.50465,
                    -3e-05
                ],
                [
                    -0.11505,
                    0.0,
                    -2.44683
                ]
            ],
            [
                [
                    -2.03555,
                    -0.0,
                    1.07696
                ],
                [
                    -3e-05,
                    -2.82132,
                    0.00012
                ],
                [
                    1.18894,
                    0.0,
                    -3.06098
                ]
            ],
            [
                [
                    -2.0353,
                    -0.0,
                    1.07686
                ],
                [
                    3e-05,
                    -2.82132,
                    -0.00012
                ],
                [
                    1.18919,
                    0.0,
                    -3.06096
                ]
            ],
            [
                [
                    -2.74667,
                    -0.0,
                    -0.49766
                ],
                [
                    -0.0002,
                    -1.05444,
                    -0.00012
                ],
                [
                    -0.48914,
                    0.0,
                    -4.12166
                ]
            ],
            [
                [
                    -2.74647,
                    -0.0,
                    -0.49766
                ],
                [
                    0.0002,
                    -1.05444,
                    0.00012
                ],
                [
                    -0.48924,
                    0.0,
                    -4.12156
                ]
            ]
        ]
    },
    "band_gap": 3.2186999999999997,
    "is_direct": false,
    "formula": "ThTa2O7"
}