{
    "mp_id": "mp-27624",
    "nelements": 3,
    "nsites": 9,
    "elements": [
        "Ca",
        "O",
        "V"
    ],
    "structure": {
        "@module": "pymatgen.core.structure",
        "@class": "Structure",
        "charge": null,
        "lattice": {
            "matrix": [
                [
                    5.12084484,
                    -1.82748627,
                    -0.01060274
                ],
                [
                    5.12084484,
                    1.82748627,
                    -0.01060274
                ],
                [
                    -1.57774539,
                    0.0,
                    6.96805191
                ]
            ],
            "a": 5.4371748510130375,
            "b": 5.4371748510130375,
            "c": 7.144440351498562,
            "alpha": 102.1158650108247,
            "beta": 102.1158650108247,
            "gamma": 39.2800437231804,
            "volume": 130.3567310349471
        },
        "sites": [
            {
                "species": [
                    {
                        "element": "Ca",
                        "occu": 1
                    }
                ],
                "abc": [
                    0.0,
                    0.0,
                    0.0
                ],
                "xyz": [
                    0.0,
                    0.0,
                    0.0
                ],
                "label": "Ca",
                "properties": {}
            },
            {
                "species": [
                    {
                        "element": "V",
                        "occu": 1
                    }
                ],
                "abc": [
                    0.24162897,
                    0.24162897,
                    0.67234863
                ],
                "xyz": [
                    1.413893976982714,
                    0.0,
                    4.679836297166627
                ],
                "label": "V",
                "properties": {}
            },
            {
                "species": [
                    {
                        "element": "V",
                        "occu": 1
                    }
                ],
                "abc": [
                    0.75837103,
                    0.75837103,
                    0.32765137
                ],
                "xyz": [
                    7.250050313017286,
                    0.0,
                    2.2670101328333723
                ],
                "label": "V",
                "properties": {}
            },
            {
                "species": [
                    {
                        "element": "O",
                        "occu": 1
                    }
                ],
                "abc": [
                    0.75908322,
                    0.75908322,
                    0.60611238
                ],
                "xyz": [
                    6.818003767168241,
                    0.0,
                    4.2073258030936
                ],
                "label": "O",
                "properties": {}
            },
            {
                "species": [
                    {
                        "element": "O",
                        "occu": 1
                    }
                ],
                "abc": [
                    0.24091678,
                    0.24091678,
                    0.39388762
                ],
                "xyz": [
                    1.8459405228317585,
                    0.0,
                    2.7395206269063994
                ],
                "label": "O",
                "properties": {}
            },
            {
                "species": [
                    {
                        "element": "O",
                        "occu": 1
                    }
                ],
                "abc": [
                    0.36708958,
                    0.36708958,
                    0.87259836
                ],
                "xyz": [
                    2.382879523309974,
                    0.0,
                    6.0725263583139695
                ],
                "label": "O",
                "properties": {}
            },
            {
                "species": [
                    {
                        "element": "O",
                        "occu": 1
                    }
                ],
                "abc": [
                    0.09788417,
                    0.09788417,
                    0.73790628
                ],
                "xyz": [
                    -0.1617289377976836,
                    0.0,
                    5.1396935829457435
                ],
                "label": "O",
                "properties": {}
            },
            {
                "species": [
                    {
                        "element": "O",
                        "occu": 1
                    }
                ],
                "abc": [
                    0.63291042,
                    0.63291042,
                    0.12740164
                ],
                "xyz": [
                    6.281064766690026,
                    0.0,
                    0.8743200716860309
                ],
                "label": "O",
                "properties": {}
            },
            {
                "species": [
                    {
                        "element": "O",
                        "occu": 1
                    }
                ],
                "abc": [
                    0.90211583,
                    0.90211583,
                    0.26209372
                ],
                "xyz": [
                    8.825673227797683,
                    0.0,
                    1.8071528470542566
                ],
                "label": "O",
                "properties": {}
            }
        ]
    },
    "spacegroup": {
        "source": "spglib",
        "symbol": "C2/m",
        "number": 12,
        "point_group": "2/m",
        "crystal_system": "monoclinic",
        "hall": "-C 2y"
    },
    "dielectric": {
        "epsilon_ionic": [
            [
                4.46183119,
                -1e-07,
                0.743022
            ],
            [
                -1e-07,
                11.13450077,
                -9e-08
            ],
            [
                0.743022,
                -9e-08,
                5.79644132
            ]
        ],
        "epsilon_ionic_avg": 7.130924426666668,
        "epsilon_ionic_eig": [
            4.130448244528937,
            6.1278242654710615,
            11.134500770000006
        ],
        "epsilon_electronic": [
            [
                3.51592335,
                0.0,
                0.03211746
            ],
            [
                0.0,
                4.6675579,
                0.0
            ],
            [
                0.03211821,
                0.0,
                3.87499251
            ]
        ],
        "epsilon_electronic_avg": 4.019491253333333,
        "epsilon_electronic_eig": [
            3.5130731150051027,
            3.877842744994897,
            4.6675579
        ]
    },
    "phonon": {
        "lowest_freq": -0.06594039943704848,
        "frequency": [
            -0.06594039943704848,
            -0.027195380228282322,
            -0.017896519269444185,
            3.3456736325986713,
            3.791059063739026,
            4.335482459789259,
            4.7033218935372245,
            4.863096910992554,
            5.807234475915083,
            7.118102149714319,
            7.305784005531419,
            7.401449030052059,
            7.454675530274215,
            9.084691999797325,
            9.979938372186707,
            10.084715472274846,
            10.141717459243422,
            11.089375856914307,
            12.238224415805753,
            14.9521116797632,
            15.927445460187045,
            17.639083535555045,
            21.47424608665418,
            24.29295730282343,
            26.30270112890132,
            28.029021969538718,
            28.8948342907776
        ]
    },
    "born_effective_charge": {
        "avg_abs_trace": 2.5541314814814817,
        "tensors": [
            [
                [
                    3.28321,
                    0.0,
                    -0.56606
                ],
                [
                    -0.0,
                    2.48315,
                    0.0
                ],
                [
                    0.53047,
                    0.0,
                    3.27745
                ]
            ],
            [
                [
                    3.12959,
                    0.0,
                    0.39869
                ],
                [
                    -0.00039,
                    5.95655,
                    0.00133
                ],
                [
                    -0.03573,
                    0.0,
                    3.63192
                ]
            ],
            [
                [
                    3.12999,
                    0.0,
                    0.3982
                ],
                [
                    0.00039,
                    5.95655,
                    -0.00133
                ],
                [
                    -0.03577,
                    0.0,
                    3.63237
                ]
            ],
            [
                [
                    -0.4606,
                    0.0,
                    0.18744
                ],
                [
                    0.00053,
                    -4.97589,
                    -0.00055
                ],
                [
                    0.4017,
                    0.0,
                    -1.81203
                ]
            ],
            [
                [
                    -0.46046,
                    0.0,
                    0.18732
                ],
                [
                    -0.00053,
                    -4.97589,
                    0.00055
                ],
                [
                    0.40158,
                    0.0,
                    -1.81216
                ]
            ],
            [
                [
                    -1.73361,
                    0.0,
                    -1.19911
                ],
                [
                    -0.00025,
                    -1.50927,
                    -0.00023
                ],
                [
                    -1.51667,
                    0.0,
                    -2.49342
                ]
            ],
            [
                [
                    -2.57726,
                    0.0,
                    0.89615
                ],
                [
                    0.00019,
                    -0.71297,
                    -0.0001
                ],
                [
                    0.88537,
                    0.0,
                    -0.96569
                ]
            ],
            [
                [
                    -1.73382,
                    0.0,
                    -1.19882
                ],
                [
                    0.00025,
                    -1.50927,
                    0.00023
                ],
                [
                    -1.51645,
                    0.0,
                    -2.49276
                ]
            ],
            [
                [
                    -2.57704,
                    0.0,
                    0.8962
                ],
                [
                    -0.00019,
                    -0.71297,
                    0.0001
                ],
                [
                    0.8855,
                    0.0,
                    -0.96566
                ]
            ]
        ]
    },
    "band_gap": 2.9650000000000003,
    "is_direct": false,
    "formula": "CaV2O6"
}