{
    "mp_id": "mp-28549",
    "nelements": 3,
    "nsites": 30,
    "elements": [
        "Li",
        "O",
        "Si"
    ],
    "structure": {
        "@module": "pymatgen.core.structure",
        "@class": "Structure",
        "charge": null,
        "lattice": {
            "matrix": [
                [
                    5.40722697,
                    0.0,
                    0.0
                ],
                [
                    -2.70361298,
                    4.68279527,
                    0.0
                ],
                [
                    0.0,
                    0.0,
                    10.63300299
                ]
            ],
            "a": 5.40722697,
            "b": 5.40722615454161,
            "c": 10.63300299,
            "alpha": 90.0,
            "beta": 90.0,
            "gamma": 119.99999880985472,
            "volume": 269.2375975432898
        },
        "sites": [
            {
                "species": [
                    {
                        "element": "Li",
                        "occu": 1
                    }
                ],
                "abc": [
                    0.0,
                    0.30755853,
                    0.2702246
                ],
                "xyz": [
                    -0.8315192338177194,
                    1.440233629532153,
                    2.873298979771554
                ],
                "label": "Li",
                "properties": {}
            },
            {
                "species": [
                    {
                        "element": "Li",
                        "occu": 1
                    }
                ],
                "abc": [
                    0.69244147,
                    0.0,
                    0.7702246
                ],
                "xyz": [
                    3.744188191730446,
                    0.0,
                    8.189800474771554
                ],
                "label": "Li",
                "properties": {}
            },
            {
                "species": [
                    {
                        "element": "Li",
                        "occu": 1
                    }
                ],
                "abc": [
                    0.333333,
                    0.666667,
                    0.41155271
                ],
                "xyz": [
                    -2.366946650012025e-06,
                    3.1218650742650897,
                    4.376041195972602
                ],
                "label": "Li",
                "properties": {}
            },
            {
                "species": [
                    {
                        "element": "Li",
                        "occu": 1
                    }
                ],
                "abc": [
                    0.666667,
                    0.333333,
                    0.91155271
                ],
                "xyz": [
                    2.7036163569466503,
                    1.5609301957349098,
                    9.692542690972603
                ],
                "label": "Li",
                "properties": {}
            },
            {
                "species": [
                    {
                        "element": "Li",
                        "occu": 1
                    }
                ],
                "abc": [
                    0.333333,
                    0.666667,
                    0.91155271
                ],
                "xyz": [
                    -2.366946650012025e-06,
                    3.1218650742650897,
                    9.692542690972603
                ],
                "label": "Li",
                "properties": {}
            },
            {
                "species": [
                    {
                        "element": "Li",
                        "occu": 1
                    }
                ],
                "abc": [
                    0.666667,
                    0.333333,
                    0.41155271
                ],
                "xyz": [
                    2.7036163569466503,
                    1.5609301957349098,
                    4.376041195972602
                ],
                "label": "Li",
                "properties": {}
            },
            {
                "species": [
                    {
                        "element": "Li",
                        "occu": 1
                    }
                ],
                "abc": [
                    0.39519742,
                    0.0,
                    0.62893144
                ],
                "xyz": [
                    2.1369221478984177,
                    0.0,
                    6.687429882025006
                ],
                "label": "Li",
                "properties": {}
            },
            {
                "species": [
                    {
                        "element": "Li",
                        "occu": 1
                    }
                ],
                "abc": [
                    0.39519742,
                    0.39519742,
                    0.12893144
                ],
                "xyz": [
                    1.068461273523906,
                    1.8506286090922035,
                    1.3709283870250057
                ],
                "label": "Li",
                "properties": {}
            },
            {
                "species": [
                    {
                        "element": "Li",
                        "occu": 1
                    }
                ],
                "abc": [
                    0.0,
                    0.60480258,
                    0.12893144
                ],
                "xyz": [
                    -1.6351521056254883,
                    2.8321666609077965,
                    1.3709283870250057
                ],
                "label": "Li",
                "properties": {}
            },
            {
                "species": [
                    {
                        "element": "Li",
                        "occu": 1
                    }
                ],
                "abc": [
                    0.0,
                    0.39519742,
                    0.62893144
                ],
                "xyz": [
                    -1.0684608743745116,
                    1.8506286090922035,
                    6.687429882025006
                ],
                "label": "Li",
                "properties": {}
            },
            {
                "species": [
                    {
                        "element": "Li",
                        "occu": 1
                    }
                ],
                "abc": [
                    0.60480258,
                    0.60480258,
                    0.62893144
                ],
                "xyz": [
                    1.635152716476094,
                    2.8321666609077965,
                    6.687429882025006
                ],
                "label": "Li",
                "properties": {}
            },
            {
                "species": [
                    {
                        "element": "Li",
                        "occu": 1
                    }
                ],
                "abc": [
                    0.60480258,
                    0.0,
                    0.12893144
                ],
                "xyz": [
                    3.2703048221015822,
                    0.0,
                    1.3709283870250057
                ],
                "label": "Li",
                "properties": {}
            },
            {
                "species": [
                    {
                        "element": "Li",
                        "occu": 1
                    }
                ],
                "abc": [
                    0.30755853,
                    0.0,
                    0.2702246
                ],
                "xyz": [
                    1.6630387782695542,
                    0.0,
                    2.873298979771554
                ],
                "label": "Li",
                "properties": {}
            },
            {
                "species": [
                    {
                        "element": "Li",
                        "occu": 1
                    }
                ],
                "abc": [
                    0.69244147,
                    0.69244147,
                    0.2702246
                ],
                "xyz": [
                    1.8720944455481654,
                    3.2425616404678466,
                    2.873298979771554
                ],
                "label": "Li",
                "properties": {}
            },
            {
                "species": [
                    {
                        "element": "Li",
                        "occu": 1
                    }
                ],
                "abc": [
                    0.0,
                    0.69244147,
                    0.7702246
                ],
                "xyz": [
                    -1.8720937461822806,
                    3.2425616404678466,
                    8.189800474771554
                ],
                "label": "Li",
                "properties": {}
            },
            {
                "species": [
                    {
                        "element": "Li",
                        "occu": 1
                    }
                ],
                "abc": [
                    0.30755853,
                    0.30755853,
                    0.7702246
                ],
                "xyz": [
                    0.8315195444518347,
                    1.440233629532153,
                    8.189800474771554
                ],
                "label": "Li",
                "properties": {}
            },
            {
                "species": [
                    {
                        "element": "Si",
                        "occu": 1
                    }
                ],
                "abc": [
                    0.0,
                    0.0,
                    0.49963507
                ],
                "xyz": [
                    0.0,
                    0.0,
                    5.31262119321886
                ],
                "label": "Si",
                "properties": {}
            },
            {
                "species": [
                    {
                        "element": "Si",
                        "occu": 1
                    }
                ],
                "abc": [
                    0.0,
                    0.0,
                    0.99963507
                ],
                "xyz": [
                    0.0,
                    0.0,
                    10.629122688218859
                ],
                "label": "Si",
                "properties": {}
            },
            {
                "species": [
                    {
                        "element": "O",
                        "occu": 1
                    }
                ],
                "abc": [
                    0.0,
                    0.28967514,
                    0.45298689
                ],
                "xyz": [
                    -0.7831694684873172,
                    1.3564893754285876,
                    4.816610955800801
                ],
                "label": "O",
                "properties": {}
            },
            {
                "species": [
                    {
                        "element": "O",
                        "occu": 1
                    }
                ],
                "abc": [
                    0.71032486,
                    0.71032486,
                    0.45298689
                ],
                "xyz": [
                    1.9204442289407915,
                    3.3263058945714117,
                    4.816610955800801
                ],
                "label": "O",
                "properties": {}
            },
            {
                "species": [
                    {
                        "element": "O",
                        "occu": 1
                    }
                ],
                "abc": [
                    0.0,
                    0.0,
                    0.15730583
                ],
                "xyz": [
                    0.0,
                    0.0,
                    1.6726333607344317
                ],
                "label": "O",
                "properties": {}
            },
            {
                "species": [
                    {
                        "element": "O",
                        "occu": 1
                    }
                ],
                "abc": [
                    0.0,
                    0.0,
                    0.65730583
                ],
                "xyz": [
                    0.0,
                    0.0,
                    6.989134855734431
                ],
                "label": "O",
                "properties": {}
            },
            {
                "species": [
                    {
                        "element": "O",
                        "occu": 1
                    }
                ],
                "abc": [
                    0.333333,
                    0.666667,
                    0.21991145
                ],
                "xyz": [
                    -2.366946650012025e-06,
                    3.1218650742650897,
                    2.3383191053852355
                ],
                "label": "O",
                "properties": {}
            },
            {
                "species": [
                    {
                        "element": "O",
                        "occu": 1
                    }
                ],
                "abc": [
                    0.666667,
                    0.333333,
                    0.71991145
                ],
                "xyz": [
                    2.7036163569466503,
                    1.5609301957349098,
                    7.654820600385236
                ],
                "label": "O",
                "properties": {}
            },
            {
                "species": [
                    {
                        "element": "O",
                        "occu": 1
                    }
                ],
                "abc": [
                    0.333333,
                    0.666667,
                    0.71991145
                ],
                "xyz": [
                    -2.366946650012025e-06,
                    3.1218650742650897,
                    7.654820600385236
                ],
                "label": "O",
                "properties": {}
            },
            {
                "species": [
                    {
                        "element": "O",
                        "occu": 1
                    }
                ],
                "abc": [
                    0.71032486,
                    0.0,
                    0.95298689
                ],
                "xyz": [
                    3.840887740453474,
                    0.0,
                    10.133112450800802
                ],
                "label": "O",
                "properties": {}
            },
            {
                "species": [
                    {
                        "element": "O",
                        "occu": 1
                    }
                ],
                "abc": [
                    0.28967514,
                    0.0,
                    0.45298689
                ],
                "xyz": [
                    1.5663392295465257,
                    0.0,
                    4.816610955800801
                ],
                "label": "O",
                "properties": {}
            },
            {
                "species": [
                    {
                        "element": "O",
                        "occu": 1
                    }
                ],
                "abc": [
                    0.28967514,
                    0.28967514,
                    0.95298689
                ],
                "xyz": [
                    0.7831697610592085,
                    1.3564893754285876,
                    10.133112450800802
                ],
                "label": "O",
                "properties": {}
            },
            {
                "species": [
                    {
                        "element": "O",
                        "occu": 1
                    }
                ],
                "abc": [
                    0.0,
                    0.71032486,
                    0.95298689
                ],
                "xyz": [
                    -1.9204435115126826,
                    3.3263058945714117,
                    10.133112450800802
                ],
                "label": "O",
                "properties": {}
            },
            {
                "species": [
                    {
                        "element": "O",
                        "occu": 1
                    }
                ],
                "abc": [
                    0.666667,
                    0.333333,
                    0.21991145
                ],
                "xyz": [
                    2.7036163569466503,
                    1.5609301957349098,
                    2.3383191053852355
                ],
                "label": "O",
                "properties": {}
            }
        ]
    },
    "spacegroup": {
        "source": "spglib",
        "symbol": "P6_3cm",
        "number": 185,
        "point_group": "6mm",
        "crystal_system": "hexagonal",
        "hall": "P 6c -2"
    },
    "dielectric": {
        "epsilon_ionic": [
            [
                4.40491574,
                8.8e-07,
                -1.109e-05
            ],
            [
                8.8e-07,
                4.40487827,
                1.19e-05
            ],
            [
                -1.109e-05,
                1.19e-05,
                4.18023689
            ]
        ],
        "epsilon_ionic_avg": 4.330010300000001,
        "epsilon_ionic_eig": [
            4.180236888822219,
            4.4049157611757055,
            4.4048782500020796
        ],
        "epsilon_electronic": [
            [
                2.75299397,
                2.9e-07,
                0.0
            ],
            [
                2.9e-07,
                2.75299403,
                0.0
            ],
            [
                0.0,
                0.0,
                2.77831886
            ]
        ],
        "epsilon_electronic_avg": 2.7614356200000003,
        "epsilon_electronic_eig": [
            2.752993708452405,
            2.7529942915475947,
            2.77831886
        ]
    },
    "phonon": {
        "lowest_freq": -0.11131705999518751,
        "frequency": [
            -0.11131705999518751,
            -0.02461382978180026,
            -0.024613827100866834,
            4.15535328055493,
            4.155353709909728,
            4.844691228351209,
            4.844691720209419,
            6.00803681167635,
            6.008037279483304,
            6.193099250767354,
            6.375137266768764,
            7.3352324938564495,
            7.335232727087079,
            7.607899829857292,
            7.811914487908519,
            7.941452245536261,
            8.283600044528498,
            8.28360048708993,
            8.374244640710373,
            8.577291545222009,
            8.577291801666732,
            8.970107471747989,
            8.97010793493108,
            9.434150316503667,
            9.592981377751318,
            10.073800153924916,
            10.27137375368777,
            10.73490894442896,
            10.73490912656381,
            10.803467350810312,
            10.834287496306823,
            10.862477003774146,
            10.86247712752131,
            11.363107591201793,
            11.36310803212014,
            12.088085721057453,
            12.088086368041944,
            12.241837335497642,
            12.241838173999648,
            12.326407404173468,
            12.326408266663647,
            12.536105381178901,
            12.536105780840716,
            12.985169228241313,
            13.078162664449103,
            13.078163402611272,
            13.161671540914302,
            13.723883059944054,
            13.723883238027858,
            13.82614488581676,
            13.826145522176684,
            13.960807136800264,
            13.960807898318231,
            14.05647369009173,
            14.189987235688545,
            14.284084653690083,
            14.284085457858227,
            14.551590434469297,
            14.551591433796993,
            14.75102893690865,
            14.751029433958982,
            14.834866688856001,
            14.834866837128393,
            15.192932433899891,
            15.32261581370065,
            16.230118056414444,
            16.35506944536111,
            16.355069968379645,
            16.672423976460156,
            16.672424049754877,
            16.78934630742675,
            17.032563027042194,
            17.03256331402206,
            17.41547674625258,
            18.047516366639755,
            18.461780426306138,
            18.461780624878642,
            19.164154338769933,
            19.164154593829586,
            19.189256683621362,
            19.302443044047266,
            20.265431594178672,
            23.750376399277904,
            24.310429839586593,
            25.67004716612485,
            27.034725017278966,
            27.034727051330634,
            27.035919702474068,
            27.035921691236705,
            27.39991314273674
        ]
    },
    "born_effective_charge": {
        "avg_abs_trace": 1.376558,
        "tensors": [
            [
                [
                    0.9279,
                    0.0086,
                    0.02235
                ],
                [
                    0.00862,
                    0.91797,
                    -0.03865
                ],
                [
                    -0.01118,
                    0.01936,
                    0.98427
                ]
            ],
            [
                [
                    0.91299,
                    0.0,
                    0.04458
                ],
                [
                    -1e-05,
                    0.93284,
                    -1e-05
                ],
                [
                    -0.02236,
                    -0.0,
                    0.98427
                ]
            ],
            [
                [
                    1.01454,
                    -0.0738,
                    2e-05
                ],
                [
                    0.07381,
                    1.01454,
                    -1e-05
                ],
                [
                    -0.0,
                    -0.0,
                    1.05565
                ]
            ],
            [
                [
                    1.01454,
                    -0.07382,
                    -2e-05
                ],
                [
                    0.07382,
                    1.01453,
                    1e-05
                ],
                [
                    -0.0,
                    -0.0,
                    1.05565
                ]
            ],
            [
                [
                    1.01454,
                    0.07382,
                    -2e-05
                ],
                [
                    -0.07381,
                    1.01454,
                    -1e-05
                ],
                [
                    -0.0,
                    -0.0,
                    1.05565
                ]
            ],
            [
                [
                    1.01454,
                    0.0738,
                    2e-05
                ],
                [
                    -0.07382,
                    1.01453,
                    1e-05
                ],
                [
                    -0.0,
                    -0.0,
                    1.05565
                ]
            ],
            [
                [
                    1.02088,
                    0.0,
                    0.1003
                ],
                [
                    0.0,
                    0.87682,
                    2e-05
                ],
                [
                    0.09048,
                    -0.0,
                    0.84689
                ]
            ],
            [
                [
                    0.91286,
                    0.06238,
                    0.05021
                ],
                [
                    0.06237,
                    0.98489,
                    0.08693
                ],
                [
                    0.04524,
                    0.07836,
                    0.84689
                ]
            ],
            [
                [
                    0.91286,
                    -0.06238,
                    0.05021
                ],
                [
                    -0.06236,
                    0.98488,
                    -0.08688
                ],
                [
                    0.04524,
                    -0.07836,
                    0.84689
                ]
            ],
            [
                [
                    0.91286,
                    -0.06238,
                    -0.05022
                ],
                [
                    -0.06237,
                    0.98489,
                    0.08693
                ],
                [
                    -0.04524,
                    0.07836,
                    0.84689
                ]
            ],
            [
                [
                    0.91286,
                    0.06238,
                    -0.05022
                ],
                [
                    0.06236,
                    0.98488,
                    -0.08688
                ],
                [
                    -0.04524,
                    -0.07836,
                    0.84689
                ]
            ],
            [
                [
                    1.02088,
                    0.0,
                    -0.10032
                ],
                [
                    -0.0,
                    0.87682,
                    2e-05
                ],
                [
                    -0.09048,
                    -0.0,
                    0.84689
                ]
            ],
            [
                [
                    0.91298,
                    0.0,
                    -0.04457
                ],
                [
                    1e-05,
                    0.93284,
                    -1e-05
                ],
                [
                    0.02236,
                    -0.0,
                    0.98427
                ]
            ],
            [
                [
                    0.9279,
                    -0.0086,
                    0.02235
                ],
                [
                    -0.00863,
                    0.91794,
                    0.03863
                ],
                [
                    -0.01118,
                    -0.01936,
                    0.98427
                ]
            ],
            [
                [
                    0.92791,
                    0.0086,
                    -0.02235
                ],
                [
                    0.00863,
                    0.91794,
                    0.03863
                ],
                [
                    0.01118,
                    -0.01936,
                    0.98427
                ]
            ],
            [
                [
                    0.92791,
                    -0.0086,
                    -0.02235
                ],
                [
                    -0.00862,
                    0.91797,
                    -0.03865
                ],
                [
                    0.01118,
                    0.01936,
                    0.98427
                ]
            ],
            [
                [
                    2.69033,
                    0.0,
                    -0.00013
                ],
                [
                    5e-05,
                    2.69024,
                    -1e-05
                ],
                [
                    -0.0,
                    -0.0,
                    2.69835
                ]
            ],
            [
                [
                    2.69027,
                    0.0,
                    9e-05
                ],
                [
                    -5e-05,
                    2.69024,
                    -1e-05
                ],
                [
                    -0.0,
                    -0.0,
                    2.69835
                ]
            ],
            [
                [
                    -1.54297,
                    0.29239,
                    -0.11142
                ],
                [
                    0.29236,
                    -1.88053,
                    0.19304
                ],
                [
                    -0.12777,
                    0.22131,
                    -1.61719
                ]
            ],
            [
                [
                    -1.54297,
                    -0.29239,
                    -0.11142
                ],
                [
                    -0.29242,
                    -1.88061,
                    -0.19304
                ],
                [
                    -0.12777,
                    -0.22131,
                    -1.61719
                ]
            ],
            [
                [
                    -1.5455,
                    0.0,
                    -4e-05
                ],
                [
                    -1e-05,
                    -1.54555,
                    1e-05
                ],
                [
                    -0.0,
                    -0.0,
                    -2.11788
                ]
            ],
            [
                [
                    -1.54553,
                    0.0,
                    4e-05
                ],
                [
                    1e-05,
                    -1.54555,
                    1e-05
                ],
                [
                    -0.0,
                    -0.0,
                    -2.11788
                ]
            ],
            [
                [
                    -1.82702,
                    0.02808,
                    -8e-05
                ],
                [
                    -0.0281,
                    -1.82694,
                    -1e-05
                ],
                [
                    -0.0,
                    -0.0,
                    -1.66684
                ]
            ],
            [
                [
                    -1.82701,
                    0.02809,
                    0.0001
                ],
                [
                    -0.02811,
                    -1.82695,
                    -5e-05
                ],
                [
                    -0.0,
                    -0.0,
                    -1.66684
                ]
            ],
            [
                [
                    -1.82701,
                    -0.02809,
                    0.0001
                ],
                [
                    0.0281,
                    -1.82694,
                    -1e-05
                ],
                [
                    -0.0,
                    -0.0,
                    -1.66684
                ]
            ],
            [
                [
                    -2.04928,
                    0.0,
                    -0.2229
                ],
                [
                    4e-05,
                    -1.37408,
                    4e-05
                ],
                [
                    -0.25554,
                    -0.0,
                    -1.61719
                ]
            ],
            [
                [
                    -2.04918,
                    0.0,
                    0.22287
                ],
                [
                    -4e-05,
                    -1.37408,
                    4e-05
                ],
                [
                    0.25554,
                    -0.0,
                    -1.61719
                ]
            ],
            [
                [
                    -1.54302,
                    -0.29244,
                    0.11144
                ],
                [
                    -0.29236,
                    -1.88053,
                    0.19304
                ],
                [
                    0.12777,
                    0.22131,
                    -1.61719
                ]
            ],
            [
                [
                    -1.54302,
                    0.29244,
                    0.11144
                ],
                [
                    0.29242,
                    -1.88061,
                    -0.19304
                ],
                [
                    0.12777,
                    -0.22131,
                    -1.61719
                ]
            ],
            [
                [
                    -1.82702,
                    -0.02808,
                    -8e-05
                ],
                [
                    0.02811,
                    -1.82695,
                    -5e-05
                ],
                [
                    -0.0,
                    -0.0,
                    -1.66684
                ]
            ]
        ]
    },
    "band_gap": 4.5512,
    "is_direct": true,
    "formula": "Li8SiO6"
}