{
    "mp_id": "mp-2879",
    "nelements": 3,
    "nsites": 20,
    "elements": [
        "O",
        "Sn",
        "Sr"
    ],
    "structure": {
        "@module": "pymatgen.core.structure",
        "@class": "Structure",
        "charge": null,
        "lattice": {
            "matrix": [
                [
                    5.74999196,
                    0.0,
                    0.0
                ],
                [
                    0.0,
                    8.0940486,
                    0.0
                ],
                [
                    0.0,
                    0.0,
                    5.71858405
                ]
            ],
            "a": 5.74999196,
            "b": 8.0940486,
            "c": 5.71858405,
            "alpha": 90.0,
            "beta": 90.0,
            "gamma": 90.0,
            "volume": 266.14698689390013
        },
        "sites": [
            {
                "species": [
                    {
                        "element": "Sr",
                        "occu": 1
                    }
                ],
                "abc": [
                    0.53333203,
                    0.25,
                    0.5074535
                ],
                "xyz": [
                    3.0666548845104784,
                    2.02351215,
                    2.9019154912166747
                ],
                "label": "Sr",
                "properties": {}
            },
            {
                "species": [
                    {
                        "element": "Sr",
                        "occu": 1
                    }
                ],
                "abc": [
                    0.03333203,
                    0.25,
                    0.9925465
                ],
                "xyz": [
                    0.1916589045104788,
                    2.02351215,
                    5.675960583783325
                ],
                "label": "Sr",
                "properties": {}
            },
            {
                "species": [
                    {
                        "element": "Sr",
                        "occu": 1
                    }
                ],
                "abc": [
                    0.96666797,
                    0.75,
                    0.0074535
                ],
                "xyz": [
                    5.558333055489522,
                    6.0705364500000005,
                    0.042623466216674996
                ],
                "label": "Sr",
                "properties": {}
            },
            {
                "species": [
                    {
                        "element": "Sr",
                        "occu": 1
                    }
                ],
                "abc": [
                    0.46666797,
                    0.75,
                    0.4925465
                ],
                "xyz": [
                    2.683337075489521,
                    6.0705364500000005,
                    2.816668558783325
                ],
                "label": "Sr",
                "properties": {}
            },
            {
                "species": [
                    {
                        "element": "Sn",
                        "occu": 1
                    }
                ],
                "abc": [
                    0.5,
                    0.0,
                    0.0
                ],
                "xyz": [
                    2.87499598,
                    0.0,
                    0.0
                ],
                "label": "Sn",
                "properties": {}
            },
            {
                "species": [
                    {
                        "element": "Sn",
                        "occu": 1
                    }
                ],
                "abc": [
                    0.0,
                    0.5,
                    0.5
                ],
                "xyz": [
                    0.0,
                    4.0470243,
                    2.859292025
                ],
                "label": "Sn",
                "properties": {}
            },
            {
                "species": [
                    {
                        "element": "Sn",
                        "occu": 1
                    }
                ],
                "abc": [
                    0.0,
                    0.0,
                    0.5
                ],
                "xyz": [
                    0.0,
                    0.0,
                    2.859292025
                ],
                "label": "Sn",
                "properties": {}
            },
            {
                "species": [
                    {
                        "element": "Sn",
                        "occu": 1
                    }
                ],
                "abc": [
                    0.5,
                    0.5,
                    0.0
                ],
                "xyz": [
                    2.87499598,
                    4.0470243,
                    0.0
                ],
                "label": "Sn",
                "properties": {}
            },
            {
                "species": [
                    {
                        "element": "O",
                        "occu": 1
                    }
                ],
                "abc": [
                    0.28598501,
                    0.4606376,
                    0.71327606
                ],
                "xyz": [
                    1.6444115081805195,
                    3.72842312138736,
                    4.078929099962843
                ],
                "label": "O",
                "properties": {}
            },
            {
                "species": [
                    {
                        "element": "O",
                        "occu": 1
                    }
                ],
                "abc": [
                    0.78598501,
                    0.0393624,
                    0.78672394
                ],
                "xyz": [
                    4.519407488180519,
                    0.31860117861264003,
                    4.498946975037157
                ],
                "label": "O",
                "properties": {}
            },
            {
                "species": [
                    {
                        "element": "O",
                        "occu": 1
                    }
                ],
                "abc": [
                    0.21401499,
                    0.5393624,
                    0.21327606
                ],
                "xyz": [
                    1.2305844718194803,
                    4.365625478612641,
                    1.219637074962843
                ],
                "label": "O",
                "properties": {}
            },
            {
                "species": [
                    {
                        "element": "O",
                        "occu": 1
                    }
                ],
                "abc": [
                    0.71401499,
                    0.9606376,
                    0.28672394
                ],
                "xyz": [
                    4.10558045181948,
                    7.77544742138736,
                    1.6396549500371569
                ],
                "label": "O",
                "properties": {}
            },
            {
                "species": [
                    {
                        "element": "O",
                        "occu": 1
                    }
                ],
                "abc": [
                    0.71401499,
                    0.5393624,
                    0.28672394
                ],
                "xyz": [
                    4.10558045181948,
                    4.365625478612641,
                    1.6396549500371569
                ],
                "label": "O",
                "properties": {}
            },
            {
                "species": [
                    {
                        "element": "O",
                        "occu": 1
                    }
                ],
                "abc": [
                    0.21401499,
                    0.9606376,
                    0.21327606
                ],
                "xyz": [
                    1.2305844718194803,
                    7.77544742138736,
                    1.219637074962843
                ],
                "label": "O",
                "properties": {}
            },
            {
                "species": [
                    {
                        "element": "O",
                        "occu": 1
                    }
                ],
                "abc": [
                    0.78598501,
                    0.4606376,
                    0.78672394
                ],
                "xyz": [
                    4.519407488180519,
                    3.72842312138736,
                    4.498946975037157
                ],
                "label": "O",
                "properties": {}
            },
            {
                "species": [
                    {
                        "element": "O",
                        "occu": 1
                    }
                ],
                "abc": [
                    0.28598501,
                    0.0393624,
                    0.71327606
                ],
                "xyz": [
                    1.6444115081805195,
                    0.31860117861264003,
                    4.078929099962843
                ],
                "label": "O",
                "properties": {}
            },
            {
                "species": [
                    {
                        "element": "O",
                        "occu": 1
                    }
                ],
                "abc": [
                    0.48178069,
                    0.25,
                    0.07432808
                ],
                "xyz": [
                    2.7702350939832523,
                    2.02351215,
                    0.425051372755124
                ],
                "label": "O",
                "properties": {}
            },
            {
                "species": [
                    {
                        "element": "O",
                        "occu": 1
                    }
                ],
                "abc": [
                    0.98178069,
                    0.25,
                    0.42567192
                ],
                "xyz": [
                    5.645231073983252,
                    2.02351215,
                    2.434240652244876
                ],
                "label": "O",
                "properties": {}
            },
            {
                "species": [
                    {
                        "element": "O",
                        "occu": 1
                    }
                ],
                "abc": [
                    0.01821931,
                    0.75,
                    0.57432808
                ],
                "xyz": [
                    0.1047608860167476,
                    6.0705364500000005,
                    3.2843433977551237
                ],
                "label": "O",
                "properties": {}
            },
            {
                "species": [
                    {
                        "element": "O",
                        "occu": 1
                    }
                ],
                "abc": [
                    0.51821931,
                    0.75,
                    0.92567192
                ],
                "xyz": [
                    2.9797568660167477,
                    6.0705364500000005,
                    5.293532677244875
                ],
                "label": "O",
                "properties": {}
            }
        ]
    },
    "spacegroup": {
        "source": "spglib",
        "symbol": "Pnma",
        "number": 62,
        "point_group": "mmm",
        "crystal_system": "orthorhombic",
        "hall": "-P 2ac 2n"
    },
    "dielectric": {
        "epsilon_ionic": [
            [
                12.40590985,
                1e-08,
                1.4e-07
            ],
            [
                1e-08,
                12.6719738,
                0.0
            ],
            [
                1.4e-07,
                0.0,
                10.71688335
            ]
        ],
        "epsilon_ionic_avg": 11.931588999999997,
        "epsilon_ionic_eig": [
            12.405909850000011,
            10.716883349999982,
            12.671973799999996
        ],
        "epsilon_electronic": [
            [
                4.35374976,
                0.0,
                -0.0
            ],
            [
                0.0,
                4.34495837,
                0.0
            ],
            [
                0.0,
                0.0,
                4.37999228
            ]
        ],
        "epsilon_electronic_avg": 4.359566803333333,
        "epsilon_electronic_eig": [
            4.35374976,
            4.34495837,
            4.37999228
        ]
    },
    "phonon": {
        "lowest_freq": -0.07791994225719616,
        "frequency": [
            -0.07791994225719616,
            -0.021097832517324857,
            -0.015336487903564242,
            2.8145398398890715,
            3.041674588609818,
            3.1852140360464065,
            3.4033935071138375,
            3.539388749757342,
            3.5547073007359553,
            3.573562800419392,
            3.9010443170635343,
            4.101562694333148,
            4.245528366408833,
            4.261064207881398,
            4.4098734432520255,
            4.51698430570937,
            4.564070852539326,
            4.606286945340803,
            4.730158888405724,
            4.75834888082813,
            5.347158520733885,
            6.050140732104153,
            6.469723011123699,
            6.718974500767994,
            6.720938643118659,
            6.742093282335718,
            6.833549762529082,
            6.957184725405345,
            7.537669002600105,
            7.637382068512546,
            7.686790831705021,
            7.829902357583685,
            8.024285382118896,
            8.137655670362038,
            8.16770275066548,
            9.318937299099609,
            9.458222439472356,
            9.56458988719336,
            9.644552275195132,
            9.75807715188995,
            9.969368317825078,
            10.418225720753005,
            10.695739894340829,
            11.154891192978136,
            11.487003852701845,
            11.608759108144259,
            12.486873192147183,
            13.089996469637079,
            14.696092450825365,
            14.823199513440349,
            14.854762268867416,
            18.051224337094357,
            18.059743663118198,
            18.267342871498148,
            18.436683660875076,
            18.455216438146543,
            18.639417223859823,
            20.20920674342799,
            21.171434543319176,
            21.758410179155614
        ]
    },
    "born_effective_charge": {
        "avg_abs_trace": 2.698075333333333,
        "tensors": [
            [
                [
                    2.46802,
                    0.0,
                    -0.16174
                ],
                [
                    2e-05,
                    2.44257,
                    -2e-05
                ],
                [
                    -0.12474,
                    -0.0,
                    2.53957
                ]
            ],
            [
                [
                    2.46802,
                    0.0,
                    0.16174
                ],
                [
                    2e-05,
                    2.44257,
                    2e-05
                ],
                [
                    0.12466,
                    -0.0,
                    2.53941
                ]
            ],
            [
                [
                    2.46812,
                    0.0,
                    0.16132
                ],
                [
                    -2e-05,
                    2.44257,
                    -2e-05
                ],
                [
                    0.12474,
                    -0.0,
                    2.53957
                ]
            ],
            [
                [
                    2.46812,
                    0.0,
                    -0.16132
                ],
                [
                    -2e-05,
                    2.44257,
                    2e-05
                ],
                [
                    -0.12466,
                    -0.0,
                    2.53941
                ]
            ],
            [
                [
                    4.26859,
                    -0.02995,
                    0.23422
                ],
                [
                    -0.10151,
                    4.26367,
                    0.33759
                ],
                [
                    -0.25205,
                    -0.43383,
                    4.25316
                ]
            ],
            [
                [
                    4.26859,
                    0.02995,
                    -0.23422
                ],
                [
                    0.10151,
                    4.26367,
                    0.33759
                ],
                [
                    0.25205,
                    -0.43383,
                    4.25316
                ]
            ],
            [
                [
                    4.26859,
                    -0.02995,
                    -0.23422
                ],
                [
                    -0.10151,
                    4.26367,
                    -0.33759
                ],
                [
                    0.25205,
                    0.43383,
                    4.25316
                ]
            ],
            [
                [
                    4.26859,
                    0.02995,
                    0.23422
                ],
                [
                    0.10151,
                    4.26367,
                    -0.33759
                ],
                [
                    -0.25205,
                    0.43383,
                    4.25316
                ]
            ],
            [
                [
                    -2.4874,
                    0.06354,
                    -0.61697
                ],
                [
                    0.06125,
                    -1.82913,
                    0.00044
                ],
                [
                    -0.59284,
                    0.02079,
                    -2.42739
                ]
            ],
            [
                [
                    -2.4874,
                    -0.06354,
                    0.61697
                ],
                [
                    -0.06126,
                    -1.82917,
                    0.0004
                ],
                [
                    0.59232,
                    0.02007,
                    -2.42743
                ]
            ],
            [
                [
                    -2.48741,
                    0.06344,
                    0.61768
                ],
                [
                    0.06126,
                    -1.82917,
                    -0.0004
                ],
                [
                    0.59284,
                    -0.02079,
                    -2.42739
                ]
            ],
            [
                [
                    -2.48741,
                    -0.06344,
                    -0.61768
                ],
                [
                    -0.06125,
                    -1.82913,
                    -0.00044
                ],
                [
                    -0.59232,
                    -0.02007,
                    -2.42743
                ]
            ],
            [
                [
                    -2.48741,
                    0.06344,
                    -0.61768
                ],
                [
                    0.06126,
                    -1.82917,
                    0.0004
                ],
                [
                    -0.59232,
                    0.02007,
                    -2.42743
                ]
            ],
            [
                [
                    -2.48741,
                    -0.06344,
                    0.61768
                ],
                [
                    -0.06125,
                    -1.82913,
                    0.00044
                ],
                [
                    0.59284,
                    0.02079,
                    -2.42739
                ]
            ],
            [
                [
                    -2.4874,
                    0.06354,
                    0.61697
                ],
                [
                    0.06125,
                    -1.82913,
                    -0.00044
                ],
                [
                    0.59232,
                    -0.02007,
                    -2.42743
                ]
            ],
            [
                [
                    -2.4874,
                    -0.06354,
                    -0.61697
                ],
                [
                    -0.06126,
                    -1.82917,
                    -0.0004
                ],
                [
                    -0.59284,
                    -0.02079,
                    -2.42739
                ]
            ],
            [
                [
                    -1.76178,
                    0.0,
                    -0.08839
                ],
                [
                    1e-05,
                    -3.04796,
                    6e-05
                ],
                [
                    -0.04539,
                    -0.0,
                    -1.93799
                ]
            ],
            [
                [
                    -1.76178,
                    0.0,
                    0.08839
                ],
                [
                    1e-05,
                    -3.04796,
                    -6e-05
                ],
                [
                    0.04571,
                    -0.0,
                    -1.93768
                ]
            ],
            [
                [
                    -1.76193,
                    0.0,
                    0.08819
                ],
                [
                    -1e-05,
                    -3.04796,
                    6e-05
                ],
                [
                    0.04539,
                    -0.0,
                    -1.93799
                ]
            ],
            [
                [
                    -1.76193,
                    0.0,
                    -0.08819
                ],
                [
                    -1e-05,
                    -3.04796,
                    -6e-05
                ],
                [
                    -0.04571,
                    -0.0,
                    -1.93768
                ]
            ]
        ]
    },
    "band_gap": 1.9666000000000001,
    "is_direct": false,
    "formula": "SrSnO3"
}