{
    "mp_id": "mp-29047",
    "nelements": 3,
    "nsites": 8,
    "elements": [
        "O",
        "Tl",
        "V"
    ],
    "structure": {
        "@module": "pymatgen.core.structure",
        "@class": "Structure",
        "charge": null,
        "lattice": {
            "matrix": [
                [
                    -2.93446592,
                    4.08500127,
                    3.19709085
                ],
                [
                    2.93446592,
                    -4.08500127,
                    3.19709085
                ],
                [
                    2.93446592,
                    4.08500127,
                    -3.19709085
                ]
            ],
            "a": 5.959841903498513,
            "b": 5.959841903498513,
            "c": 5.959841903498513,
            "alpha": 121.00664158883633,
            "beta": 93.4625366946313,
            "gamma": 115.11691064705622,
            "volume": 153.29791034725176
        },
        "sites": [
            {
                "species": [
                    {
                        "element": "Tl",
                        "occu": 1
                    }
                ],
                "abc": [
                    0.76312231,
                    0.52975441,
                    0.23336789
                ],
                "xyz": [
                    -2.9344659258079275e-08,
                    1.9066162949044532,
                    3.387345985887205
                ],
                "label": "Tl",
                "properties": {}
            },
            {
                "species": [
                    {
                        "element": "Tl",
                        "occu": 1
                    }
                ],
                "abc": [
                    0.04487284,
                    0.04487284,
                    0.0
                ],
                "xyz": [
                    0.0,
                    0.0,
                    0.286925092355028
                ],
                "label": "Tl",
                "properties": {}
            },
            {
                "species": [
                    {
                        "element": "Tl",
                        "occu": 1
                    }
                ],
                "abc": [
                    0.29638552,
                    0.52975441,
                    0.76663211
                ],
                "xyz": [
                    2.93446885446592,
                    2.1783809309442894,
                    0.19025190682544713
                ],
                "label": "Tl",
                "properties": {}
            },
            {
                "species": [
                    {
                        "element": "V",
                        "occu": 1
                    }
                ],
                "abc": [
                    0.50850378,
                    0.00850378,
                    0.5
                ],
                "xyz": [
                    0.0,
                    4.08500127,
                    0.054374714456825846
                ],
                "label": "V",
                "properties": {}
            },
            {
                "species": [
                    {
                        "element": "O",
                        "occu": 1
                    }
                ],
                "abc": [
                    0.83479194,
                    0.16024899,
                    0.67454195
                ],
                "xyz": [
                    -2.934465920034768e-06,
                    5.5110135298378236,
                    1.0246643563923334
                ],
                "label": "O",
                "properties": {}
            },
            {
                "species": [
                    {
                        "element": "O",
                        "occu": 1
                    }
                ],
                "abc": [
                    0.48570705,
                    0.16024899,
                    0.32545805
                ],
                "xyz": [
                    -2.9344659147056973e-08,
                    2.6589931360134598,
                    1.0246611912723915
                ],
                "label": "O",
                "properties": {}
            },
            {
                "species": [
                    {
                        "element": "O",
                        "occu": 1
                    }
                ],
                "abc": [
                    0.35880828,
                    0.61037785,
                    0.25156957
                ],
                "xyz": [
                    1.4764446593481089,
                    0.0,
                    2.294285337784476
                ],
                "label": "O",
                "properties": {}
            },
            {
                "species": [
                    {
                        "element": "O",
                        "occu": 1
                    }
                ],
                "abc": [
                    0.35880828,
                    0.10723872,
                    0.74843043
                ],
                "xyz": [
                    1.4580212899965503,
                    4.085001229149987,
                    -0.9028054802446155
                ],
                "label": "O",
                "properties": {}
            }
        ]
    },
    "spacegroup": {
        "source": "spglib",
        "symbol": "Imm2",
        "number": 44,
        "point_group": "mm2",
        "crystal_system": "orthorhombic",
        "hall": "I 2 -2"
    },
    "dielectric": {
        "epsilon_ionic": [
            [
                15.1801875,
                2e-08,
                -0.00055952
            ],
            [
                2e-08,
                24.36983601,
                1.401e-05
            ],
            [
                -0.00055952,
                1.401e-05,
                8.76355717
            ]
        ],
        "epsilon_ionic_avg": 16.104526893333343,
        "epsilon_ionic_eig": [
            15.180187548789261,
            8.763557121198172,
            24.369836010012595
        ],
        "epsilon_electronic": [
            [
                5.98982319,
                0.0,
                0.0
            ],
            [
                0.0,
                5.99759579,
                0.0
            ],
            [
                0.0,
                0.0,
                5.63497804
            ]
        ],
        "epsilon_electronic_avg": 5.87413234,
        "epsilon_electronic_eig": [
            5.98982319,
            5.99759579,
            5.63497804
        ]
    },
    "phonon": {
        "lowest_freq": -0.09425517448991091,
        "frequency": [
            -0.09425517448991091,
            -0.018429349873660517,
            -0.01196546197423049,
            0.515795801947472,
            1.2096272731255024,
            1.3817800342932796,
            1.4055908087778988,
            1.7370340823109014,
            2.4886916593515123,
            2.5492268304880947,
            2.976371758162305,
            2.9995287331246496,
            3.402508292578422,
            3.6952409084910607,
            4.0982669735552095,
            8.236547596033287,
            8.488596672936369,
            9.268983002359823,
            9.475779890272891,
            9.601254247382043,
            21.73265011170836,
            22.246142439298307,
            22.49363523825792,
            23.556718394652226
        ]
    },
    "born_effective_charge": {
        "avg_abs_trace": 2.4708666666666668,
        "tensors": [
            [
                [
                    1.94006,
                    -7e-05,
                    -0.0001
                ],
                [
                    0.0,
                    1.74859,
                    0.12772
                ],
                [
                    -0.0,
                    0.20755,
                    2.14726
                ]
            ],
            [
                [
                    1.74024,
                    -0.0,
                    -0.00021
                ],
                [
                    -0.0,
                    2.28452,
                    -0.00016
                ],
                [
                    -0.0,
                    -0.0,
                    2.26907
                ]
            ],
            [
                [
                    1.94006,
                    7e-05,
                    -0.0001
                ],
                [
                    -0.0,
                    1.74859,
                    -0.12743
                ],
                [
                    -0.0,
                    -0.20755,
                    2.14726
                ]
            ],
            [
                [
                    4.30088,
                    -0.0,
                    3e-05
                ],
                [
                    0.0,
                    4.30541,
                    -0.00058
                ],
                [
                    0.0,
                    0.0,
                    3.07847
                ]
            ],
            [
                [
                    -1.02183,
                    0.00019,
                    6e-05
                ],
                [
                    0.0,
                    -3.62317,
                    -1.83096
                ],
                [
                    0.0,
                    -1.35718,
                    -2.44408
                ]
            ],
            [
                [
                    -1.02183,
                    -0.00019,
                    6e-05
                ],
                [
                    0.0,
                    -3.62362,
                    1.83087
                ],
                [
                    0.0,
                    1.35718,
                    -2.44408
                ]
            ],
            [
                [
                    -3.93885,
                    0.0,
                    -1.66881
                ],
                [
                    6e-05,
                    -1.42016,
                    0.00027
                ],
                [
                    -1.26177,
                    0.0,
                    -2.37694
                ]
            ],
            [
                [
                    -3.93873,
                    -0.0,
                    1.66908
                ],
                [
                    -6e-05,
                    -1.42016,
                    0.00027
                ],
                [
                    1.26177,
                    -0.0,
                    -2.37694
                ]
            ]
        ]
    },
    "band_gap": 2.3038000000000003,
    "is_direct": false,
    "formula": "Tl3VO4"
}