{
    "mp_id": "mp-20098",
    "nelements": 3,
    "nsites": 7,
    "elements": [
        "Ba",
        "O",
        "Pb"
    ],
    "structure": {
        "@module": "pymatgen.core.structure",
        "@class": "Structure",
        "charge": null,
        "lattice": {
            "matrix": [
                [
                    -2.1690821,
                    2.1690821,
                    6.63185422
                ],
                [
                    2.1690821,
                    -2.1690821,
                    6.63185422
                ],
                [
                    2.1690821,
                    2.1690821,
                    -6.63185422
                ]
            ],
            "a": 7.306936752731108,
            "b": 7.306936752731108,
            "c": 7.306936752731108,
            "alpha": 145.46269626081786,
            "beta": 145.46269626081786,
            "gamma": 49.64553428824248,
            "volume": 124.80929879741164
        },
        "sites": [
            {
                "species": [
                    {
                        "element": "Ba",
                        "occu": 1
                    }
                ],
                "abc": [
                    0.35622752,
                    0.35622752,
                    0.0
                ],
                "xyz": [
                    0.0,
                    0.0,
                    4.724897963584269
                ],
                "label": "Ba",
                "properties": {}
            },
            {
                "species": [
                    {
                        "element": "Ba",
                        "occu": 1
                    }
                ],
                "abc": [
                    0.64377248,
                    0.64377248,
                    0.0
                ],
                "xyz": [
                    0.0,
                    0.0,
                    8.538810476415732
                ],
                "label": "Ba",
                "properties": {}
            },
            {
                "species": [
                    {
                        "element": "Pb",
                        "occu": 1
                    }
                ],
                "abc": [
                    0.0,
                    0.0,
                    0.0
                ],
                "xyz": [
                    0.0,
                    0.0,
                    0.0
                ],
                "label": "Pb",
                "properties": {}
            },
            {
                "species": [
                    {
                        "element": "O",
                        "occu": 1
                    }
                ],
                "abc": [
                    0.5,
                    0.0,
                    0.5
                ],
                "xyz": [
                    0.0,
                    2.1690821,
                    0.0
                ],
                "label": "O",
                "properties": {}
            },
            {
                "species": [
                    {
                        "element": "O",
                        "occu": 1
                    }
                ],
                "abc": [
                    0.0,
                    0.5,
                    0.5
                ],
                "xyz": [
                    2.1690821,
                    0.0,
                    0.0
                ],
                "label": "O",
                "properties": {}
            },
            {
                "species": [
                    {
                        "element": "O",
                        "occu": 1
                    }
                ],
                "abc": [
                    0.83622892,
                    0.83622892,
                    0.0
                ],
                "xyz": [
                    0.0,
                    0.0,
                    11.091496583976086
                ],
                "label": "O",
                "properties": {}
            },
            {
                "species": [
                    {
                        "element": "O",
                        "occu": 1
                    }
                ],
                "abc": [
                    0.16377108,
                    0.16377108,
                    0.0
                ],
                "xyz": [
                    0.0,
                    0.0,
                    2.172211856023915
                ],
                "label": "O",
                "properties": {}
            }
        ]
    },
    "spacegroup": {
        "source": "spglib",
        "symbol": "I4/mmm",
        "number": 139,
        "point_group": "4/mmm",
        "crystal_system": "tetragonal",
        "hall": "-I 4 2"
    },
    "dielectric": {
        "epsilon_ionic": [
            [
                37.47824279,
                0.0,
                0.0
            ],
            [
                0.0,
                37.47849503,
                1e-08
            ],
            [
                0.0,
                1e-08,
                9.24200326
            ]
        ],
        "epsilon_ionic_avg": 28.06624702666667,
        "epsilon_ionic_eig": [
            9.242003260000004,
            37.47849503,
            37.47824279
        ],
        "epsilon_electronic": [
            [
                5.00781031,
                0.0,
                0.0
            ],
            [
                0.0,
                5.00781031,
                0.0
            ],
            [
                0.0,
                -0.0,
                5.20496759
            ]
        ],
        "epsilon_electronic_avg": 5.073529403333333,
        "epsilon_electronic_eig": [
            5.00781031,
            5.00781031,
            5.20496759
        ]
    },
    "phonon": {
        "lowest_freq": -0.03143039905236796,
        "frequency": [
            -0.03143039905236796,
            -0.008794149725622728,
            -0.008794149725622728,
            1.9618808339805816,
            1.9618808339805816,
            2.040642923575965,
            2.040642923575965,
            4.055961422764079,
            4.450655608241542,
            4.450655608241542,
            4.5825589437444805,
            5.201697542949493,
            5.201697542949493,
            5.293812909785401,
            5.538790295942658,
            5.538790295942658,
            7.31557419657908,
            14.569933492071472,
            15.23429275554922,
            17.679225756821758,
            17.679225756821758
        ]
    },
    "born_effective_charge": {
        "avg_abs_trace": 2.7793985714285716,
        "tensors": [
            [
                [
                    2.45041,
                    -0.0,
                    9e-05
                ],
                [
                    -0.0,
                    2.45042,
                    0.00023
                ],
                [
                    0.0,
                    0.0,
                    3.02238
                ]
            ],
            [
                [
                    2.45041,
                    0.0,
                    -9e-05
                ],
                [
                    -0.0,
                    2.45042,
                    -0.00023
                ],
                [
                    -0.0,
                    -0.0,
                    3.02212
                ]
            ],
            [
                [
                    4.9613,
                    0.0,
                    0.0
                ],
                [
                    0.0,
                    4.9613,
                    -0.0
                ],
                [
                    0.0,
                    0.0,
                    3.41493
                ]
            ],
            [
                [
                    -2.08801,
                    0.0,
                    0.0
                ],
                [
                    0.0,
                    -3.69629,
                    -0.0
                ],
                [
                    0.0,
                    0.0,
                    -1.63355
                ]
            ],
            [
                [
                    -3.69631,
                    0.0,
                    0.0
                ],
                [
                    0.0,
                    -2.08802,
                    -0.0
                ],
                [
                    0.0,
                    0.0,
                    -1.63355
                ]
            ],
            [
                [
                    -2.0389,
                    0.0,
                    -0.00013
                ],
                [
                    0.0,
                    -2.03891,
                    0.0001
                ],
                [
                    0.0,
                    0.0,
                    -3.09624
                ]
            ],
            [
                [
                    -2.0389,
                    -0.0,
                    0.00013
                ],
                [
                    -0.0,
                    -2.03891,
                    -0.0001
                ],
                [
                    -0.0,
                    -0.0,
                    -3.09609
                ]
            ]
        ]
    },
    "band_gap": 1.3278,
    "is_direct": false,
    "formula": "Ba2PbO4"
}