{
    "mp_id": "mp-22313",
    "nelements": 3,
    "nsites": 5,
    "elements": [
        "Na",
        "O",
        "Pt"
    ],
    "structure": {
        "@module": "pymatgen.core.structure",
        "@class": "Structure",
        "charge": null,
        "lattice": {
            "matrix": [
                [
                    -1.55264359,
                    2.26300266,
                    4.68377525
                ],
                [
                    1.55264359,
                    -2.26300266,
                    4.68377525
                ],
                [
                    1.55264359,
                    2.26300266,
                    -4.68377525
                ]
            ],
            "a": 5.42859408587967,
            "b": 5.42859408587967,
            "c": 5.42859408587967,
            "alpha": 146.76128777872327,
            "beta": 130.72608740442726,
            "gamma": 60.73578565565374,
            "volume": 65.82833609496753
        },
        "sites": [
            {
                "species": [
                    {
                        "element": "Na",
                        "occu": 1
                    }
                ],
                "abc": [
                    0.67690789,
                    0.67690789,
                    0.0
                ],
                "xyz": [
                    0.0,
                    0.0,
                    6.340968843423445
                ],
                "label": "Na",
                "properties": {}
            },
            {
                "species": [
                    {
                        "element": "Na",
                        "occu": 1
                    }
                ],
                "abc": [
                    0.32309211,
                    0.32309211,
                    0.0
                ],
                "xyz": [
                    0.0,
                    0.0,
                    3.026581656576555
                ],
                "label": "Na",
                "properties": {}
            },
            {
                "species": [
                    {
                        "element": "Pt",
                        "occu": 1
                    }
                ],
                "abc": [
                    0.0,
                    0.0,
                    0.0
                ],
                "xyz": [
                    0.0,
                    0.0,
                    0.0
                ],
                "label": "Pt",
                "properties": {}
            },
            {
                "species": [
                    {
                        "element": "O",
                        "occu": 1
                    }
                ],
                "abc": [
                    0.85963017,
                    0.35963017,
                    0.5
                ],
                "xyz": [
                    0.0,
                    2.26300266,
                    3.3688537787985844
                ],
                "label": "O",
                "properties": {}
            },
            {
                "species": [
                    {
                        "element": "O",
                        "occu": 1
                    }
                ],
                "abc": [
                    0.14036983,
                    0.64036983,
                    0.5
                ],
                "xyz": [
                    1.55264359,
                    0.0,
                    1.3149214712014152
                ],
                "label": "O",
                "properties": {}
            }
        ]
    },
    "spacegroup": {
        "source": "spglib",
        "symbol": "Immm",
        "number": 71,
        "point_group": "mmm",
        "crystal_system": "orthorhombic",
        "hall": "-I 2 2"
    },
    "dielectric": {
        "epsilon_ionic": [
            [
                5.25914912,
                0.0,
                -0.0
            ],
            [
                0.0,
                2.04816589,
                -0.0
            ],
            [
                -0.0,
                -0.0,
                3.89909932
            ]
        ],
        "epsilon_ionic_avg": 3.735471443333333,
        "epsilon_ionic_eig": [
            5.25914912,
            2.04816589,
            3.89909932
        ],
        "epsilon_electronic": [
            [
                5.2559659,
                0.0,
                0.0
            ],
            [
                -0.0,
                3.53885915,
                0.0
            ],
            [
                0.0,
                0.0,
                3.51247444
            ]
        ],
        "epsilon_electronic_avg": 4.102433163333333,
        "epsilon_electronic_eig": [
            5.2559659,
            3.53885915,
            3.51247444
        ]
    },
    "phonon": {
        "lowest_freq": -0.014772173199106394,
        "frequency": [
            -0.014772173199106394,
            -0.0063508167732121866,
            -0.001717441536214411,
            4.135303105001002,
            4.587927982949272,
            5.185630771563211,
            5.5751938946364366,
            5.644329633561328,
            6.57070385313283,
            10.589583667186252,
            11.779163473474041,
            15.538252244225157,
            15.665532081919674,
            16.733068847172998,
            16.794570314987116
        ]
    },
    "born_effective_charge": {
        "avg_abs_trace": 1.29267,
        "tensors": [
            [
                [
                    0.99652,
                    -0.0,
                    -2e-05
                ],
                [
                    0.0,
                    1.11835,
                    -1e-05
                ],
                [
                    0.0,
                    -0.0,
                    1.23271
                ]
            ],
            [
                [
                    0.99652,
                    -0.0,
                    2e-05
                ],
                [
                    -0.0,
                    1.11835,
                    1e-05
                ],
                [
                    0.0,
                    -0.0,
                    1.23269
                ]
            ],
            [
                [
                    3.49785,
                    -0.0,
                    0.0
                ],
                [
                    0.0,
                    -1.40061,
                    0.0
                ],
                [
                    0.0,
                    -0.0,
                    0.90263
                ]
            ],
            [
                [
                    -2.74545,
                    0.0,
                    0.0002
                ],
                [
                    -0.0,
                    -0.41805,
                    1e-05
                ],
                [
                    -0.0,
                    0.0,
                    -1.68403
                ]
            ],
            [
                [
                    -2.74545,
                    -0.0,
                    -0.0002
                ],
                [
                    0.0,
                    -0.41805,
                    -1e-05
                ],
                [
                    0.0,
                    0.0,
                    -1.68401
                ]
            ]
        ]
    },
    "band_gap": 2.1114000000000006,
    "is_direct": false,
    "formula": "Na2PtO2"
}