{
    "mp_id": "mp-20678",
    "nelements": 4,
    "nsites": 24,
    "elements": [
        "In",
        "Na",
        "O",
        "W"
    ],
    "structure": {
        "@module": "pymatgen.core.structure",
        "@class": "Structure",
        "charge": null,
        "lattice": {
            "matrix": [
                [
                    10.03375325,
                    0.0,
                    0.00159977
                ],
                [
                    0.0,
                    5.82174448,
                    0.0
                ],
                [
                    -0.13310865,
                    0.0,
                    5.07773022
                ]
            ],
            "a": 10.033753377532737,
            "b": 5.82174448,
            "c": 5.079474588951703,
            "alpha": 90.0,
            "beta": 91.4924841137641,
            "gamma": 90.0,
            "volume": 296.6115066831657
        },
        "sites": [
            {
                "species": [
                    {
                        "element": "Na",
                        "occu": 1
                    }
                ],
                "abc": [
                    0.0,
                    0.67691718,
                    0.25
                ],
                "xyz": [
                    -0.0332771625,
                    3.9408388560821668,
                    1.269432555
                ],
                "label": "Na",
                "properties": {}
            },
            {
                "species": [
                    {
                        "element": "Na",
                        "occu": 1
                    }
                ],
                "abc": [
                    0.0,
                    0.32308282,
                    0.75
                ],
                "xyz": [
                    -0.0998314875,
                    1.8809056239178337,
                    3.8082976650000004
                ],
                "label": "Na",
                "properties": {}
            },
            {
                "species": [
                    {
                        "element": "In",
                        "occu": 1
                    }
                ],
                "abc": [
                    0.5,
                    0.6833574,
                    0.25
                ],
                "xyz": [
                    4.9835994625,
                    3.9783321713171524,
                    1.27023244
                ],
                "label": "In",
                "properties": {}
            },
            {
                "species": [
                    {
                        "element": "In",
                        "occu": 1
                    }
                ],
                "abc": [
                    0.5,
                    0.3166426,
                    0.75
                ],
                "xyz": [
                    4.9170451375,
                    1.8434123086828482,
                    3.8090975500000006
                ],
                "label": "In",
                "properties": {}
            },
            {
                "species": [
                    {
                        "element": "W",
                        "occu": 1
                    }
                ],
                "abc": [
                    0.25280758,
                    0.17209796,
                    0.2532124
                ],
                "xyz": [
                    2.502904116722375,
                    1.0019103486492609,
                    1.2861486895409848
                ],
                "label": "W",
                "properties": {}
            },
            {
                "species": [
                    {
                        "element": "W",
                        "occu": 1
                    }
                ],
                "abc": [
                    0.74719242,
                    0.17209796,
                    0.2467876
                ],
                "xyz": [
                    7.464294808277625,
                    1.0019103486492609,
                    1.2543161904590154
                ],
                "label": "W",
                "properties": {}
            },
            {
                "species": [
                    {
                        "element": "W",
                        "occu": 1
                    }
                ],
                "abc": [
                    0.74719242,
                    0.82790204,
                    0.7467876
                ],
                "xyz": [
                    7.397740483277626,
                    4.819834131350739,
                    3.7931813004590156
                ],
                "label": "W",
                "properties": {}
            },
            {
                "species": [
                    {
                        "element": "W",
                        "occu": 1
                    }
                ],
                "abc": [
                    0.25280758,
                    0.82790204,
                    0.7532124
                ],
                "xyz": [
                    2.436349791722375,
                    4.819834131350739,
                    3.8250137995409847
                ],
                "label": "W",
                "properties": {}
            },
            {
                "species": [
                    {
                        "element": "O",
                        "occu": 1
                    }
                ],
                "abc": [
                    0.38114627,
                    0.62274402,
                    0.89202041
                ],
                "xyz": [
                    3.7055919927903314,
                    3.6254565608880096,
                    4.530048739082148
                ],
                "label": "O",
                "properties": {}
            },
            {
                "species": [
                    {
                        "element": "O",
                        "occu": 1
                    }
                ],
                "abc": [
                    0.61885373,
                    0.62274402,
                    0.60797959
                ],
                "xyz": [
                    6.1284982822096685,
                    3.6254565608880096,
                    3.088146360917852
                ],
                "label": "O",
                "properties": {}
            },
            {
                "species": [
                    {
                        "element": "O",
                        "occu": 1
                    }
                ],
                "abc": [
                    0.61885373,
                    0.37725598,
                    0.10797959
                ],
                "xyz": [
                    6.195052607209669,
                    2.1962879191119904,
                    0.549281250917852
                ],
                "label": "O",
                "properties": {}
            },
            {
                "species": [
                    {
                        "element": "O",
                        "occu": 1
                    }
                ],
                "abc": [
                    0.38114627,
                    0.37725598,
                    0.39202041
                ],
                "xyz": [
                    3.772146317790331,
                    2.1962879191119904,
                    1.991183629082148
                ],
                "label": "O",
                "properties": {}
            },
            {
                "species": [
                    {
                        "element": "O",
                        "occu": 1
                    }
                ],
                "abc": [
                    0.1379514,
                    0.63336087,
                    0.62205114
                ],
                "xyz": [
                    1.301369920615689,
                    3.6872651487704977,
                    3.158828562474629
                ],
                "label": "O",
                "properties": {}
            },
            {
                "species": [
                    {
                        "element": "O",
                        "occu": 1
                    }
                ],
                "abc": [
                    0.8620486,
                    0.63336087,
                    0.87794886
                ],
                "xyz": [
                    8.532720354384312,
                    3.6872651487704977,
                    4.459366537525372
                ],
                "label": "O",
                "properties": {}
            },
            {
                "species": [
                    {
                        "element": "O",
                        "occu": 1
                    }
                ],
                "abc": [
                    0.8620486,
                    0.36663913,
                    0.37794886
                ],
                "xyz": [
                    8.599274679384312,
                    2.1344793312295023,
                    1.9205014275253713
                ],
                "label": "O",
                "properties": {}
            },
            {
                "species": [
                    {
                        "element": "O",
                        "occu": 1
                    }
                ],
                "abc": [
                    0.1379514,
                    0.36663913,
                    0.12205114
                ],
                "xyz": [
                    1.367924245615689,
                    2.1344793312295023,
                    0.6199634524746288
                ],
                "label": "O",
                "properties": {}
            },
            {
                "species": [
                    {
                        "element": "O",
                        "occu": 1
                    }
                ],
                "abc": [
                    0.36438224,
                    0.10080818,
                    0.94964698
                ],
                "xyz": [
                    3.5297152573579034,
                    0.5868794654538464,
                    4.822634096453821
                ],
                "label": "O",
                "properties": {}
            },
            {
                "species": [
                    {
                        "element": "O",
                        "occu": 1
                    }
                ],
                "abc": [
                    0.63561776,
                    0.10080818,
                    0.55035302
                ],
                "xyz": [
                    6.304375017642097,
                    0.5868794654538464,
                    2.79556100354618
                ],
                "label": "O",
                "properties": {}
            },
            {
                "species": [
                    {
                        "element": "O",
                        "occu": 1
                    }
                ],
                "abc": [
                    0.63561776,
                    0.89919182,
                    0.05035302
                ],
                "xyz": [
                    6.370929342642097,
                    5.234865014546154,
                    0.2566958935461796
                ],
                "label": "O",
                "properties": {}
            },
            {
                "species": [
                    {
                        "element": "O",
                        "occu": 1
                    }
                ],
                "abc": [
                    0.36438224,
                    0.89919182,
                    0.44964698
                ],
                "xyz": [
                    3.596269582357903,
                    5.234865014546154,
                    2.2837689864538206
                ],
                "label": "O",
                "properties": {}
            },
            {
                "species": [
                    {
                        "element": "O",
                        "occu": 1
                    }
                ],
                "abc": [
                    0.16237214,
                    0.90243746,
                    0.06337744
                ],
                "xyz": [
                    1.6207659019555989,
                    5.253760301300221,
                    0.32207330043264454
                ],
                "label": "O",
                "properties": {}
            },
            {
                "species": [
                    {
                        "element": "O",
                        "occu": 1
                    }
                ],
                "abc": [
                    0.83762786,
                    0.09756254,
                    0.93662256
                ],
                "xyz": [
                    8.279878698044401,
                    0.5679841786997792,
                    4.757256689567356
                ],
                "label": "O",
                "properties": {}
            },
            {
                "species": [
                    {
                        "element": "O",
                        "occu": 1
                    }
                ],
                "abc": [
                    0.83762786,
                    0.90243746,
                    0.43662256
                ],
                "xyz": [
                    8.346433023044401,
                    5.253760301300221,
                    2.2183915795673554
                ],
                "label": "O",
                "properties": {}
            },
            {
                "species": [
                    {
                        "element": "O",
                        "occu": 1
                    }
                ],
                "abc": [
                    0.16237214,
                    0.09756254,
                    0.56337744
                ],
                "xyz": [
                    1.554211576955599,
                    0.5679841786997792,
                    2.8609384104326447
                ],
                "label": "O",
                "properties": {}
            }
        ]
    },
    "spacegroup": {
        "source": "spglib",
        "symbol": "P2/c",
        "number": 13,
        "point_group": "2/m",
        "crystal_system": "monoclinic",
        "hall": "-P 2yc"
    },
    "dielectric": {
        "epsilon_ionic": [
            [
                4.74251989,
                -2e-08,
                0.89968673
            ],
            [
                -2e-08,
                7.5509272,
                0.0
            ],
            [
                0.89968673,
                0.0,
                10.95537051
            ]
        ],
        "epsilon_ionic_avg": 7.749605866666663,
        "epsilon_ionic_eig": [
            4.614858865539103,
            11.083031534460883,
            7.550927200000001
        ],
        "epsilon_electronic": [
            [
                3.64554339,
                0.0,
                0.04818184
            ],
            [
                0.0,
                4.24692847,
                0.0
            ],
            [
                0.04817921,
                0.0,
                4.78602171
            ]
        ],
        "epsilon_electronic_avg": 4.226164523333334,
        "epsilon_electronic_eig": [
            3.6435115804540583,
            4.788053519545942,
            4.24692847
        ]
    },
    "phonon": {
        "lowest_freq": -0.06766420699870186,
        "frequency": [
            -0.06766420699870186,
            -0.04819754742111859,
            -0.028287238653013826,
            2.036209973480732,
            2.1395215029821886,
            2.834078853121784,
            2.9212743892710686,
            3.5736398319804614,
            3.815307282636438,
            3.8615663829258384,
            4.2488425021363385,
            4.41950379210419,
            4.536111619166816,
            4.92818769523825,
            5.1355037050687455,
            5.195355818735702,
            5.233171148522876,
            5.299505303048284,
            5.481693881280465,
            5.566023902810108,
            5.645984711062092,
            6.109052668839829,
            6.174454353338215,
            6.202705750548638,
            6.447423876570615,
            6.840032908914297,
            6.917171899937654,
            7.177229793889155,
            7.396353273736315,
            7.459510689049701,
            7.642979083108019,
            7.699336368426983,
            7.757722541975788,
            8.08510363484185,
            8.110409542243879,
            8.330974109200316,
            8.37168032513037,
            9.056282117913545,
            9.446716475896263,
            9.47664197732963,
            9.807687266047852,
            10.52160316420477,
            10.912666448417013,
            10.949379849416632,
            11.985943737902003,
            12.172366783544764,
            13.239022159262115,
            13.694033992411992,
            13.93527650241479,
            14.313105517016961,
            14.35909663145834,
            14.892333161796921,
            14.994628946672465,
            15.563394931687233,
            15.663572300361066,
            16.15011184877913,
            17.284892398351786,
            17.400337489710665,
            18.039333699484107,
            18.67450863046295,
            19.793373731672734,
            20.651249272798694,
            20.67098198000617,
            21.02210997692699,
            22.054780183961554,
            22.638354028153298,
            22.735998646430403,
            24.190539155269285,
            26.143433886936286,
            26.17234517673084,
            26.774901392792646,
            27.77059222837269
        ]
    },
    "born_effective_charge": {
        "avg_abs_trace": 2.708103194444444,
        "tensors": [
            [
                [
                    1.95453,
                    2e-05,
                    0.06391
                ],
                [
                    0.0,
                    1.21672,
                    0.0
                ],
                [
                    0.05715,
                    -3e-05,
                    1.09629
                ]
            ],
            [
                [
                    1.95453,
                    -2e-05,
                    0.06391
                ],
                [
                    0.0,
                    1.2167,
                    0.0
                ],
                [
                    0.05715,
                    3e-05,
                    1.09629
                ]
            ],
            [
                [
                    3.30698,
                    0.00011,
                    0.00647
                ],
                [
                    0.0,
                    3.93776,
                    0.0
                ],
                [
                    -0.04614,
                    -0.00012,
                    3.75556
                ]
            ],
            [
                [
                    3.30698,
                    -0.00011,
                    0.00647
                ],
                [
                    0.0,
                    3.93795,
                    0.0
                ],
                [
                    -0.04614,
                    0.00012,
                    3.75556
                ]
            ],
            [
                [
                    4.01292,
                    0.06032,
                    0.1414
                ],
                [
                    0.92838,
                    5.58553,
                    -0.14893
                ],
                [
                    0.2985,
                    0.90459,
                    7.14034
                ]
            ],
            [
                [
                    4.01308,
                    -0.0598,
                    0.1413
                ],
                [
                    -0.92838,
                    5.58553,
                    0.14893
                ],
                [
                    0.29851,
                    -0.90426,
                    7.14035
                ]
            ],
            [
                [
                    4.01308,
                    0.0598,
                    0.1413
                ],
                [
                    0.92865,
                    5.58571,
                    -0.1489
                ],
                [
                    0.29851,
                    0.90426,
                    7.14035
                ]
            ],
            [
                [
                    4.01292,
                    -0.06032,
                    0.1414
                ],
                [
                    -0.92865,
                    5.58571,
                    0.1489
                ],
                [
                    0.2985,
                    -0.90459,
                    7.14034
                ]
            ],
            [
                [
                    -1.9203,
                    0.94591,
                    -0.60897
                ],
                [
                    1.6119,
                    -2.70513,
                    0.69649
                ],
                [
                    -0.95017,
                    0.57163,
                    -1.95364
                ]
            ],
            [
                [
                    -1.91989,
                    -0.94615,
                    -0.60895
                ],
                [
                    -1.6119,
                    -2.70513,
                    -0.69649
                ],
                [
                    -0.95038,
                    -0.57208,
                    -1.95385
                ]
            ],
            [
                [
                    -1.91989,
                    0.94615,
                    -0.60895
                ],
                [
                    1.61171,
                    -2.70541,
                    0.69654
                ],
                [
                    -0.95038,
                    0.57208,
                    -1.95385
                ]
            ],
            [
                [
                    -1.9203,
                    -0.94591,
                    -0.60897
                ],
                [
                    -1.61171,
                    -2.70541,
                    -0.69654
                ],
                [
                    -0.95017,
                    -0.57163,
                    -1.95364
                ]
            ],
            [
                [
                    -1.79262,
                    -0.8356,
                    -0.52866
                ],
                [
                    -0.92544,
                    -1.81953,
                    -0.52815
                ],
                [
                    -0.66897,
                    -0.36614,
                    -1.18296
                ]
            ],
            [
                [
                    -1.79427,
                    0.83739,
                    -0.52902
                ],
                [
                    0.92544,
                    -1.81953,
                    0.52815
                ],
                [
                    -0.66891,
                    0.36598,
                    -1.18292
                ]
            ],
            [
                [
                    -1.79427,
                    -0.83739,
                    -0.52902
                ],
                [
                    -0.92539,
                    -1.81972,
                    -0.52831
                ],
                [
                    -0.66891,
                    -0.36598,
                    -1.18292
                ]
            ],
            [
                [
                    -1.79262,
                    0.8356,
                    -0.52866
                ],
                [
                    0.92539,
                    -1.81972,
                    0.52831
                ],
                [
                    -0.66897,
                    0.36614,
                    -1.18296
                ]
            ],
            [
                [
                    -1.59485,
                    -0.32085,
                    0.56464
                ],
                [
                    -0.47843,
                    -1.82283,
                    -0.38316
                ],
                [
                    0.79148,
                    -0.7707,
                    -3.07484
                ]
            ],
            [
                [
                    -1.59463,
                    0.32031,
                    0.56501
                ],
                [
                    0.47843,
                    -1.82283,
                    0.38316
                ],
                [
                    0.79162,
                    0.77067,
                    -3.07525
                ]
            ],
            [
                [
                    -1.59463,
                    -0.32031,
                    0.56501
                ],
                [
                    -0.47853,
                    -1.82216,
                    -0.38308
                ],
                [
                    0.79162,
                    -0.77067,
                    -3.07525
                ]
            ],
            [
                [
                    -1.59485,
                    0.32085,
                    0.56464
                ],
                [
                    0.47853,
                    -1.82216,
                    0.38308
                ],
                [
                    0.79148,
                    0.7707,
                    -3.07484
                ]
            ],
            [
                [
                    -1.33587,
                    -0.15894,
                    0.39721
                ],
                [
                    -0.10007,
                    -1.81536,
                    -1.12268
                ],
                [
                    0.52358,
                    -1.44364,
                    -3.35482
                ]
            ],
            [
                [
                    -1.33506,
                    -0.1589,
                    0.39566
                ],
                [
                    -0.09983,
                    -1.81568,
                    -1.12269
                ],
                [
                    0.52373,
                    -1.44368,
                    -3.35427
                ]
            ],
            [
                [
                    -1.33506,
                    0.1589,
                    0.39566
                ],
                [
                    0.10007,
                    -1.81536,
                    1.12268
                ],
                [
                    0.52373,
                    1.44368,
                    -3.35427
                ]
            ],
            [
                [
                    -1.33587,
                    0.15894,
                    0.39721
                ],
                [
                    0.09983,
                    -1.81568,
                    1.12269
                ],
                [
                    0.52358,
                    1.44364,
                    -3.35482
                ]
            ]
        ]
    },
    "band_gap": 3.3958000000000004,
    "is_direct": false,
    "formula": "NaIn(WO4)2"
}