{
    "mp_id": "mp-28205",
    "nelements": 3,
    "nsites": 27,
    "elements": [
        "Na",
        "O",
        "Re"
    ],
    "structure": {
        "@module": "pymatgen.core.structure",
        "@class": "Structure",
        "charge": null,
        "lattice": {
            "matrix": [
                [
                    5.46676925,
                    -0.0,
                    0.0
                ],
                [
                    -2.73338412,
                    4.73436128,
                    0.0
                ],
                [
                    0.0,
                    0.0,
                    13.55052871
                ]
            ],
            "a": 5.46676925,
            "b": 5.46676919917344,
            "c": 13.55052871,
            "alpha": 90.0,
            "beta": 90.0,
            "gamma": 119.99999419598672,
            "volume": 350.710185888582
        },
        "sites": [
            {
                "species": [
                    {
                        "element": "Na",
                        "occu": 1
                    }
                ],
                "abc": [
                    0.62234606,
                    0.92697914,
                    0.58278029
                ],
                "xyz": [
                    0.8684322428193978,
                    4.388654147783699,
                    7.896981051267126
                ],
                "label": "Na",
                "properties": {}
            },
            {
                "species": [
                    {
                        "element": "Na",
                        "occu": 1
                    }
                ],
                "abc": [
                    0.30463309,
                    0.37765394,
                    0.24944729
                ],
                "xyz": [
                    0.6330855264930495,
                    1.7879501907754434,
                    3.3801426647766957
                ],
                "label": "Na",
                "properties": {}
            },
            {
                "species": [
                    {
                        "element": "Na",
                        "occu": 1
                    }
                ],
                "abc": [
                    0.07302086,
                    0.69536691,
                    0.91611429
                ],
                "xyz": [
                    -1.5015166773109143,
                    3.2921181740972445,
                    12.413832988286266
                ],
                "label": "Na",
                "properties": {}
            },
            {
                "species": [
                    {
                        "element": "Na",
                        "occu": 1
                    }
                ],
                "abc": [
                    0.69536691,
                    0.07302086,
                    0.08388571
                ],
                "xyz": [
                    3.6018163819027733,
                    0.34570713221630084,
                    1.1366957217137341
                ],
                "label": "Na",
                "properties": {}
            },
            {
                "species": [
                    {
                        "element": "Na",
                        "occu": 1
                    }
                ],
                "abc": [
                    0.37765394,
                    0.30463309,
                    0.75055271
                ],
                "xyz": [
                    1.2318676957008141,
                    1.4422431059027552,
                    10.170386045223305
                ],
                "label": "Na",
                "properties": {}
            },
            {
                "species": [
                    {
                        "element": "Na",
                        "occu": 1
                    }
                ],
                "abc": [
                    0.92697914,
                    0.62234606,
                    0.41721971
                ],
                "xyz": [
                    3.366470220394877,
                    2.946411089224557,
                    5.653547658732874
                ],
                "label": "Na",
                "properties": {}
            },
            {
                "species": [
                    {
                        "element": "Na",
                        "occu": 1
                    }
                ],
                "abc": [
                    0.0,
                    0.72239243,
                    0.166667
                ],
                "xyz": [
                    -1.9745759965702117,
                    3.42006674955711,
                    2.2584259685095702
                ],
                "label": "Na",
                "properties": {}
            },
            {
                "species": [
                    {
                        "element": "Na",
                        "occu": 1
                    }
                ],
                "abc": [
                    0.72239243,
                    0.0,
                    0.833333
                ],
                "xyz": [
                    3.949152722756777,
                    0.0,
                    11.29210274149043
                ],
                "label": "Na",
                "properties": {}
            },
            {
                "species": [
                    {
                        "element": "Na",
                        "occu": 1
                    }
                ],
                "abc": [
                    0.27760757,
                    0.27760757,
                    0.5
                ],
                "xyz": [
                    0.758808403813434,
                    1.3142945304428897,
                    6.775264355
                ],
                "label": "Na",
                "properties": {}
            },
            {
                "species": [
                    {
                        "element": "Re",
                        "occu": 1
                    }
                ],
                "abc": [
                    1.0,
                    0.6245503,
                    0.666667
                ],
                "xyz": [
                    3.7596333778387634,
                    2.956846757732384,
                    9.03369032350957
                ],
                "label": "Re",
                "properties": {}
            },
            {
                "species": [
                    {
                        "element": "Re",
                        "occu": 1
                    }
                ],
                "abc": [
                    0.6245503,
                    1.0,
                    0.333333
                ],
                "xyz": [
                    0.6808882551182744,
                    4.73436128,
                    4.51683838649043
                ],
                "label": "Re",
                "properties": {}
            },
            {
                "species": [
                    {
                        "element": "Re",
                        "occu": 1
                    }
                ],
                "abc": [
                    0.3754497,
                    0.3754497,
                    0.0
                ],
                "xyz": [
                    1.026248627042961,
                    1.7775145222676159,
                    0.0
                ],
                "label": "Re",
                "properties": {}
            },
            {
                "species": [
                    {
                        "element": "O",
                        "occu": 1
                    }
                ],
                "abc": [
                    0.16099795,
                    0.50510536,
                    0.06278463
                ],
                "xyz": [
                    -0.5005083275778458,
                    2.3913512587044603,
                    0.8507649313617273
                ],
                "label": "O",
                "properties": {}
            },
            {
                "species": [
                    {
                        "element": "O",
                        "occu": 1
                    }
                ],
                "abc": [
                    0.34410741,
                    0.83900205,
                    0.72945163
                ],
                "xyz": [
                    -0.41215907243230365,
                    3.972138819360624,
                    9.884455254871298
                ],
                "label": "O",
                "properties": {}
            },
            {
                "species": [
                    {
                        "element": "O",
                        "occu": 1
                    }
                ],
                "abc": [
                    0.49489464,
                    0.65589259,
                    0.39611863
                ],
                "xyz": [
                    0.9126684100101488,
                    3.105232481934915,
                    5.367616868380868
                ],
                "label": "O",
                "properties": {}
            },
            {
                "species": [
                    {
                        "element": "O",
                        "occu": 1
                    }
                ],
                "abc": [
                    1.0,
                    0.29682051,
                    0.666667
                ],
                "xyz": [
                    4.6554447814756985,
                    1.4052555296538527,
                    9.03369032350957
                ],
                "label": "O",
                "properties": {}
            },
            {
                "species": [
                    {
                        "element": "O",
                        "occu": 1
                    }
                ],
                "abc": [
                    0.29682051,
                    1.0,
                    0.333333
                ],
                "xyz": [
                    -1.1107348831626829,
                    4.73436128,
                    4.51683838649043
                ],
                "label": "O",
                "properties": {}
            },
            {
                "species": [
                    {
                        "element": "O",
                        "occu": 1
                    }
                ],
                "abc": [
                    0.70317949,
                    0.70317949,
                    0.0
                ],
                "xyz": [
                    1.9220603616869834,
                    3.329105750346147,
                    0.0
                ],
                "label": "O",
                "properties": {}
            },
            {
                "species": [
                    {
                        "element": "O",
                        "occu": 1
                    }
                ],
                "abc": [
                    0.65589259,
                    0.49489464,
                    0.60388137
                ],
                "xyz": [
                    2.23287629226574,
                    2.343010021295539,
                    8.182911841619132
                ],
                "label": "O",
                "properties": {}
            },
            {
                "species": [
                    {
                        "element": "O",
                        "occu": 1
                    }
                ],
                "abc": [
                    0.83900205,
                    0.34410741,
                    0.27054837
                ],
                "xyz": [
                    3.6460528775586334,
                    1.6291287980650848,
                    3.6660734551287026
                ],
                "label": "O",
                "properties": {}
            },
            {
                "species": [
                    {
                        "element": "O",
                        "occu": 1
                    }
                ],
                "abc": [
                    0.50510536,
                    0.16099795,
                    0.93721537
                ],
                "xyz": [
                    2.3212252101756254,
                    0.7622224606393759,
                    12.699763778638273
                ],
                "label": "O",
                "properties": {}
            },
            {
                "species": [
                    {
                        "element": "O",
                        "occu": 1
                    }
                ],
                "abc": [
                    0.32324745,
                    0.15842521,
                    0.10908831
                ],
                "xyz": [
                    1.3340822665792471,
                    0.7500421799998689,
                    1.47820427658038
                ],
                "label": "O",
                "properties": {}
            },
            {
                "species": [
                    {
                        "element": "O",
                        "occu": 1
                    }
                ],
                "abc": [
                    0.83517775,
                    0.67675255,
                    0.77575531
                ],
                "xyz": [
                    2.7158993686446813,
                    3.203991068861264,
                    10.51189460008995
                ],
                "label": "O",
                "properties": {}
            },
            {
                "species": [
                    {
                        "element": "O",
                        "occu": 1
                    }
                ],
                "abc": [
                    0.84157479,
                    0.16482225,
                    0.44242231
                ],
                "xyz": [
                    4.150172662774538,
                    0.78032807848248,
                    5.99505621359952
                ],
                "label": "O",
                "properties": {}
            },
            {
                "species": [
                    {
                        "element": "O",
                        "occu": 1
                    }
                ],
                "abc": [
                    0.16482225,
                    0.84157479,
                    0.55757769
                ],
                "xyz": [
                    -1.3993019587625226,
                    3.984319100000131,
                    7.55547249640048
                ],
                "label": "O",
                "properties": {}
            },
            {
                "species": [
                    {
                        "element": "O",
                        "occu": 1
                    }
                ],
                "abc": [
                    0.15842521,
                    0.32324745,
                    0.89091169
                ],
                "xyz": [
                    -0.017485380207701517,
                    1.5303702111387358,
                    12.07232443341962
                ],
                "label": "O",
                "properties": {}
            },
            {
                "species": [
                    {
                        "element": "O",
                        "occu": 1
                    }
                ],
                "abc": [
                    0.67675255,
                    0.83517775,
                    0.22424469
                ],
                "xyz": [
                    1.4167884309717569,
                    3.9540332015175204,
                    3.03863410991005
                ],
                "label": "O",
                "properties": {}
            }
        ]
    },
    "spacegroup": {
        "source": "spglib",
        "symbol": "P3_121",
        "number": 152,
        "point_group": "32",
        "crystal_system": "trigonal",
        "hall": "P 31 2\""
    },
    "dielectric": {
        "epsilon_ionic": [
            [
                5.9804141,
                -0.00041827,
                -2e-08
            ],
            [
                -0.00041827,
                5.9782343,
                0.00024918
            ],
            [
                -2e-08,
                0.00024918,
                8.51409691
            ]
        ],
        "epsilon_ionic_avg": 6.8242484366666645,
        "epsilon_ionic_eig": [
            5.980491603058884,
            5.978156772456081,
            8.514096934485027
        ],
        "epsilon_electronic": [
            [
                3.12559582,
                -3.3e-07,
                0.0
            ],
            [
                -3.3e-07,
                3.12559605,
                0.0
            ],
            [
                -0.0,
                0.0,
                3.18356428
            ]
        ],
        "epsilon_electronic_avg": 3.1449187166666666,
        "epsilon_electronic_eig": [
            3.125595585536125,
            3.125596284463875,
            3.18356428
        ]
    },
    "phonon": {
        "lowest_freq": -0.1546843135549988,
        "frequency": [
            -0.1546843135549988,
            -0.1546842963330742,
            -0.06604807468806169,
            1.4758410888583353,
            1.720783088042357,
            1.7207830951437786,
            2.1272355758717394,
            2.3063399550147365,
            2.72786610107676,
            2.72786610107676,
            2.829955419810191,
            2.829955441400649,
            3.3081105344751616,
            3.308110608354231,
            3.632198165059584,
            3.70070714946286,
            3.7007073046603054,
            3.940724053000391,
            4.331403315103481,
            4.3314033263885126,
            4.635739567757272,
            4.6859019208765105,
            4.6859019965034,
            5.131162444359727,
            5.131162587251398,
            5.1863381720949056,
            5.298912890174797,
            5.484265842173778,
            5.560604812952447,
            5.560604812952447,
            5.694382151654514,
            5.793171257207116,
            5.793171278300928,
            5.9102107702434346,
            6.724995385299345,
            6.7249955670096035,
            6.828272586664405,
            6.830646980398881,
            6.836552518384857,
            6.836552750753558,
            7.19579622934034,
            7.195796585965407,
            7.39511701949853,
            7.4624689796195725,
            7.4624691269971475,
            7.62525379693664,
            7.625253812962345,
            7.679343770769066,
            8.348605722413065,
            8.735613080538736,
            8.735613178459792,
            9.52627763801226,
            10.166393313648358,
            10.166393758388415,
            10.303868456277488,
            10.303868669750821,
            10.420934367402598,
            11.772485393520338,
            12.054275358606095,
            12.054275683005692,
            12.811170592916703,
            13.084058083588964,
            13.084058373117028,
            14.941573740590853,
            14.99730999517004,
            14.997310451465442,
            20.299371716156113,
            20.29937213754869,
            20.51537355905098,
            20.690499845770983,
            21.33552489180335,
            21.335525407281914,
            22.092776902438004,
            23.538693348452085,
            23.81054217136046,
            23.810542992509763,
            24.359031806404875,
            24.359032007069775,
            25.872669327903637,
            25.872669469597632,
            25.892214158760048
        ]
    },
    "born_effective_charge": {
        "avg_abs_trace": 1.7500412345679015,
        "tensors": [
            [
                [
                    1.10221,
                    -0.11579,
                    -0.14394
                ],
                [
                    0.10504,
                    1.01284,
                    0.02078
                ],
                [
                    -0.0892,
                    -0.06052,
                    1.06618
                ]
            ],
            [
                [
                    1.03973,
                    -0.06901,
                    0.08945
                ],
                [
                    0.15177,
                    1.07493,
                    0.11367
                ],
                [
                    -0.00781,
                    0.1075,
                    1.06618
                ]
            ],
            [
                [
                    1.03045,
                    -0.14653,
                    0.05446
                ],
                [
                    0.07469,
                    1.08449,
                    -0.13447
                ],
                [
                    0.09701,
                    -0.04699,
                    1.06618
                ]
            ],
            [
                [
                    1.10221,
                    0.11579,
                    0.14394
                ],
                [
                    -0.10538,
                    1.01306,
                    0.01963
                ],
                [
                    0.08921,
                    -0.06054,
                    1.06618
                ]
            ],
            [
                [
                    1.03045,
                    0.14653,
                    -0.05446
                ],
                [
                    -0.07488,
                    1.08442,
                    -0.13428
                ],
                [
                    -0.09703,
                    -0.04698,
                    1.06618
                ]
            ],
            [
                [
                    1.03973,
                    0.06901,
                    -0.08945
                ],
                [
                    -0.15207,
                    1.07524,
                    0.11466
                ],
                [
                    0.00783,
                    0.10752,
                    1.06618
                ]
            ],
            [
                [
                    1.25133,
                    -0.02221,
                    0.1266
                ],
                [
                    -0.02203,
                    1.27725,
                    0.07221
                ],
                [
                    -0.15976,
                    -0.09224,
                    1.2606
                ]
            ],
            [
                [
                    1.28979,
                    0.0,
                    0.0
                ],
                [
                    -7e-05,
                    1.23893,
                    -0.14584
                ],
                [
                    -0.0,
                    0.18448,
                    1.2606
                ]
            ],
            [
                [
                    1.25133,
                    0.02221,
                    -0.1266
                ],
                [
                    0.02217,
                    1.2771,
                    0.07358
                ],
                [
                    0.15976,
                    -0.09223,
                    1.2606
                ]
            ],
            [
                [
                    4.92764,
                    1.05503,
                    0.19716
                ],
                [
                    1.05815,
                    3.70563,
                    0.11597
                ],
                [
                    0.59513,
                    0.34384,
                    4.84023
                ]
            ],
            [
                [
                    3.09946,
                    0.0,
                    0.0
                ],
                [
                    -0.00169,
                    5.53681,
                    -0.23048
                ],
                [
                    0.00021,
                    -0.68732,
                    4.84023
                ]
            ],
            [
                [
                    4.92764,
                    -1.05503,
                    -0.19716
                ],
                [
                    -1.05867,
                    3.70443,
                    0.11276
                ],
                [
                    -0.59534,
                    0.34348,
                    4.84023
                ]
            ],
            [
                [
                    -2.43067,
                    0.55114,
                    0.61401
                ],
                [
                    0.66905,
                    -1.18718,
                    -0.2691
                ],
                [
                    0.81141,
                    -0.21074,
                    -1.58979
                ]
            ],
            [
                [
                    -2.02809,
                    -0.90374,
                    -0.5413
                ],
                [
                    -0.78513,
                    -1.59169,
                    -0.39758
                ],
                [
                    -0.58822,
                    -0.59733,
                    -1.58979
                ]
            ],
            [
                [
                    -0.96962,
                    0.17207,
                    -0.07253
                ],
                [
                    0.2923,
                    -2.64875,
                    0.66718
                ],
                [
                    -0.2232,
                    0.80807,
                    -1.58979
                ]
            ],
            [
                [
                    -1.24123,
                    0.79966,
                    -0.11455
                ],
                [
                    0.79864,
                    -2.16246,
                    -0.0666
                ],
                [
                    -0.15914,
                    -0.09186,
                    -0.60536
                ]
            ],
            [
                [
                    -2.62507,
                    0.0,
                    0.0
                ],
                [
                    0.00533,
                    -0.77955,
                    0.13256
                ],
                [
                    2e-05,
                    0.18374,
                    -0.60536
                ]
            ],
            [
                [
                    -1.24123,
                    -0.79966,
                    0.11455
                ],
                [
                    -0.7958,
                    -2.15856,
                    -0.06586
                ],
                [
                    0.15912,
                    -0.09189,
                    -0.60536
                ]
            ],
            [
                [
                    -2.43067,
                    -0.55114,
                    -0.61401
                ],
                [
                    -0.67061,
                    -1.18727,
                    -0.27077
                ],
                [
                    -0.81174,
                    -0.21067,
                    -1.5902
                ]
            ],
            [
                [
                    -0.96962,
                    -0.17207,
                    0.07253
                ],
                [
                    -0.29308,
                    -2.65023,
                    0.66823
                ],
                [
                    0.22342,
                    0.80832,
                    -1.5902
                ]
            ],
            [
                [
                    -2.02809,
                    0.90374,
                    0.5413
                ],
                [
                    0.78511,
                    -1.5917,
                    -0.3973
                ],
                [
                    0.58832,
                    -0.59765,
                    -1.5902
                ]
            ],
            [
                [
                    -0.96694,
                    0.5187,
                    -0.42694
                ],
                [
                    0.29946,
                    -1.40967,
                    0.83788
                ],
                [
                    -0.12254,
                    0.94172,
                    -2.22377
                ]
            ],
            [
                [
                    -1.65274,
                    0.09639,
                    0.93916
                ],
                [
                    -0.12406,
                    -0.72395,
                    -0.04639
                ],
                [
                    0.87682,
                    -0.36474,
                    -2.22377
                ]
            ],
            [
                [
                    -0.94417,
                    -0.28659,
                    -0.51197
                ],
                [
                    -0.50619,
                    -1.43378,
                    -0.79066
                ],
                [
                    -0.75428,
                    -0.57698,
                    -2.22377
                ]
            ],
            [
                [
                    -0.96694,
                    -0.5187,
                    0.42694
                ],
                [
                    -0.29838,
                    -1.40716,
                    0.83331
                ],
                [
                    0.12282,
                    0.9419,
                    -2.22407
                ]
            ],
            [
                [
                    -1.65274,
                    -0.09639,
                    -0.93916
                ],
                [
                    0.12256,
                    -0.72343,
                    -0.04811
                ],
                [
                    -0.87712,
                    -0.36458,
                    -2.22407
                ]
            ],
            [
                [
                    -0.94417,
                    0.28659,
                    0.51197
                ],
                [
                    0.50376,
                    -1.42973,
                    -0.78499
                ],
                [
                    0.7543,
                    -0.57732,
                    -2.22407
                ]
            ]
        ]
    },
    "band_gap": 2.5977,
    "is_direct": false,
    "formula": "Na3ReO5"
}