{
    "mp_id": "mp-2858",
    "nelements": 2,
    "nsites": 12,
    "elements": [
        "O",
        "Zr"
    ],
    "structure": {
        "@module": "pymatgen.core.structure",
        "@class": "Structure",
        "charge": null,
        "lattice": {
            "matrix": [
                [
                    5.19959883,
                    0.0,
                    0.00013036
                ],
                [
                    0.0,
                    5.25178526,
                    0.0
                ],
                [
                    -0.87873014,
                    0.0,
                    5.27171057
                ]
            ],
            "a": 5.199598831634139,
            "b": 5.25178526,
            "c": 5.344445620716347,
            "alpha": 90.0,
            "beta": 99.4620670597115,
            "gamma": 90.0,
            "volume": 143.95613255524765
        },
        "sites": [
            {
                "species": [
                    {
                        "element": "Zr",
                        "occu": 1
                    }
                ],
                "abc": [
                    0.72360754,
                    0.96039433,
                    0.79316998
                ],
                "xyz": [
                    3.065486550793981,
                    5.043784786081575,
                    4.181456896851603
                ],
                "label": "Zr",
                "properties": {}
            },
            {
                "species": [
                    {
                        "element": "Zr",
                        "occu": 1
                    }
                ],
                "abc": [
                    0.72360754,
                    0.53960567,
                    0.29316998
                ],
                "xyz": [
                    3.5048516207939815,
                    2.8338931039184243,
                    1.545601611851603
                ],
                "label": "Zr",
                "properties": {}
            },
            {
                "species": [
                    {
                        "element": "Zr",
                        "occu": 1
                    }
                ],
                "abc": [
                    0.27639246,
                    0.46039433,
                    0.70683002
                ],
                "xyz": [
                    0.8160170692060191,
                    2.417892156081576,
                    3.7262393181483966
                ],
                "label": "Zr",
                "properties": {}
            },
            {
                "species": [
                    {
                        "element": "Zr",
                        "occu": 1
                    }
                ],
                "abc": [
                    0.27639246,
                    0.03960567,
                    0.20683002
                ],
                "xyz": [
                    1.2553821392060192,
                    0.20800047391842422,
                    1.090384033148397
                ],
                "label": "Zr",
                "properties": {}
            },
            {
                "species": [
                    {
                        "element": "O",
                        "occu": 1
                    }
                ],
                "abc": [
                    0.07111851,
                    0.16512504,
                    0.84332592
                ],
                "xyz": [
                    -0.37126818235988557,
                    0.8672012511289104,
                    4.445779437427937
                ],
                "label": "O",
                "properties": {}
            },
            {
                "species": [
                    {
                        "element": "O",
                        "occu": 1
                    }
                ],
                "abc": [
                    0.07111851,
                    0.33487496,
                    0.34332592
                ],
                "xyz": [
                    0.06809688764011446,
                    1.7586913788710896,
                    1.809924152427938
                ],
                "label": "O",
                "properties": {}
            },
            {
                "species": [
                    {
                        "element": "O",
                        "occu": 1
                    }
                ],
                "abc": [
                    0.55108147,
                    0.25752318,
                    0.0173996
                ],
                "xyz": [
                    2.850113013702736,
                    1.352456440832327,
                    0.0917974942142012
                ],
                "label": "O",
                "properties": {}
            },
            {
                "species": [
                    {
                        "element": "O",
                        "occu": 1
                    }
                ],
                "abc": [
                    0.44891853,
                    0.75752318,
                    0.4826004
                ],
                "xyz": [
                    1.910120746297264,
                    3.978349070832327,
                    2.5441881507857986
                ],
                "label": "O",
                "properties": {}
            },
            {
                "species": [
                    {
                        "element": "O",
                        "occu": 1
                    }
                ],
                "abc": [
                    0.55108147,
                    0.24247682,
                    0.5173996
                ],
                "xyz": [
                    2.410747943702736,
                    1.2734361891676733,
                    2.727652779214201
                ],
                "label": "O",
                "properties": {}
            },
            {
                "species": [
                    {
                        "element": "O",
                        "occu": 1
                    }
                ],
                "abc": [
                    0.44891853,
                    0.74247682,
                    0.9826004
                ],
                "xyz": [
                    1.470755676297264,
                    3.8993288191676734,
                    5.180043435785799
                ],
                "label": "O",
                "properties": {}
            },
            {
                "species": [
                    {
                        "element": "O",
                        "occu": 1
                    }
                ],
                "abc": [
                    0.92888149,
                    0.66512504,
                    0.65667408
                ],
                "xyz": [
                    4.252771802359886,
                    3.4930938811289103,
                    3.461916777572062
                ],
                "label": "O",
                "properties": {}
            },
            {
                "species": [
                    {
                        "element": "O",
                        "occu": 1
                    }
                ],
                "abc": [
                    0.92888149,
                    0.83487496,
                    0.15667408
                ],
                "xyz": [
                    4.692136872359885,
                    4.38458400887109,
                    0.8260614925720619
                ],
                "label": "O",
                "properties": {}
            }
        ]
    },
    "spacegroup": {
        "source": "spglib",
        "symbol": "P2_1/c",
        "number": 14,
        "point_group": "2/m",
        "crystal_system": "monoclinic",
        "hall": "-P 2ybc"
    },
    "dielectric": {
        "epsilon_ionic": [
            [
                14.01046038,
                5e-08,
                0.81838136
            ],
            [
                5e-08,
                12.61410291,
                -1.4e-07
            ],
            [
                0.81838136,
                -1.4e-07,
                10.57759548
            ]
        ],
        "epsilon_ionic_avg": 12.40071959,
        "epsilon_ionic_eig": [
            14.195576879096091,
            10.392478980903899,
            12.614102910000009
        ],
        "epsilon_electronic": [
            [
                5.00045874,
                0.0,
                0.14442923
            ],
            [
                0.0,
                4.99137341,
                0.0
            ],
            [
                0.14441908,
                0.0,
                4.73264748
            ]
        ],
        "epsilon_electronic_avg": 4.908159876666667,
        "epsilon_electronic_eig": [
            5.063502479807078,
            4.669603740192922,
            4.99137341
        ]
    },
    "phonon": {
        "lowest_freq": -0.02280612351154452,
        "frequency": [
            -0.02280612351154452,
            -0.016338395856921033,
            -0.009852646963994795,
            3.096592101414916,
            5.356935307928605,
            5.490055354602516,
            5.532611994171104,
            5.699028761425032,
            6.590902748071176,
            6.876360407204949,
            7.130017550908306,
            7.609595767307256,
            9.215485720236513,
            9.253368859335275,
            9.325804454598,
            9.868741079438296,
            9.885731295067421,
            10.341820192693799,
            10.402244954645102,
            10.414136172316306,
            11.207941958019536,
            11.298364929452323,
            11.8973709633942,
            12.084954031676123,
            14.053566341220794,
            14.540080286218407,
            14.574068478025922,
            14.756311155777738,
            15.6922045609727,
            16.3478261266508,
            17.053815621605477,
            18.01916727483031,
            18.798065314147475,
            18.830118999505338,
            20.824251422745704,
            21.950551937308447
        ]
    },
    "born_effective_charge": {
        "avg_abs_trace": 3.4255766666666667,
        "tensors": [
            [
                [
                    5.30784,
                    -0.37586,
                    0.20844
                ],
                [
                    -0.15404,
                    5.27437,
                    0.18287
                ],
                [
                    0.21617,
                    0.3546,
                    4.83303
                ]
            ],
            [
                [
                    5.30784,
                    0.37586,
                    0.20844
                ],
                [
                    0.15422,
                    5.27422,
                    -0.18327
                ],
                [
                    0.21617,
                    -0.3546,
                    4.83303
                ]
            ],
            [
                [
                    5.30809,
                    0.37563,
                    0.20808
                ],
                [
                    0.15404,
                    5.27437,
                    -0.18287
                ],
                [
                    0.21628,
                    -0.35467,
                    4.83264
                ]
            ],
            [
                [
                    5.30809,
                    -0.37563,
                    0.20808
                ],
                [
                    -0.15422,
                    5.27422,
                    0.18327
                ],
                [
                    0.21628,
                    0.35467,
                    4.83264
                ]
            ],
            [
                [
                    -2.92466,
                    -1.03143,
                    -0.21479
                ],
                [
                    -1.25429,
                    -2.56763,
                    0.64145
                ],
                [
                    -0.18747,
                    0.66924,
                    -2.28301
                ]
            ],
            [
                [
                    -2.92466,
                    1.03143,
                    -0.21479
                ],
                [
                    1.25413,
                    -2.56752,
                    -0.64201
                ],
                [
                    -0.18747,
                    -0.66924,
                    -2.28301
                ]
            ],
            [
                [
                    -2.38332,
                    -0.08705,
                    0.00652
                ],
                [
                    -0.14333,
                    -2.70675,
                    -0.35598
                ],
                [
                    -0.02864,
                    -0.41024,
                    -2.54976
                ]
            ],
            [
                [
                    -2.38329,
                    0.08713,
                    0.00655
                ],
                [
                    0.14333,
                    -2.70675,
                    0.35598
                ],
                [
                    -0.02878,
                    0.41023,
                    -2.54987
                ]
            ],
            [
                [
                    -2.38332,
                    0.08705,
                    0.00652
                ],
                [
                    0.14284,
                    -2.70669,
                    0.35588
                ],
                [
                    -0.02864,
                    0.41024,
                    -2.54976
                ]
            ],
            [
                [
                    -2.38329,
                    -0.08713,
                    0.00655
                ],
                [
                    -0.14284,
                    -2.70669,
                    -0.35588
                ],
                [
                    -0.02878,
                    -0.41023,
                    -2.54987
                ]
            ],
            [
                [
                    -2.92466,
                    1.03126,
                    -0.2148
                ],
                [
                    1.25429,
                    -2.56763,
                    -0.64145
                ],
                [
                    -0.18756,
                    -0.66886,
                    -2.28303
                ]
            ],
            [
                [
                    -2.92466,
                    -1.03126,
                    -0.2148
                ],
                [
                    -1.25413,
                    -2.56752,
                    0.64201
                ],
                [
                    -0.18756,
                    0.66886,
                    -2.28303
                ]
            ]
        ]
    },
    "band_gap": 3.9087000000000005,
    "is_direct": false,
    "formula": "ZrO2"
}