{
    "mp_id": "mp-29525",
    "nelements": 3,
    "nsites": 28,
    "elements": [
        "Bi",
        "O",
        "Rb"
    ],
    "structure": {
        "@module": "pymatgen.core.structure",
        "@class": "Structure",
        "charge": null,
        "lattice": {
            "matrix": [
                [
                    8.74941571,
                    0.0,
                    0.0
                ],
                [
                    0.0,
                    8.74941571,
                    0.0
                ],
                [
                    0.0,
                    0.0,
                    8.74941571
                ]
            ],
            "a": 8.74941571,
            "b": 8.74941571,
            "c": 8.74941571,
            "alpha": 90.0,
            "beta": 90.0,
            "gamma": 90.0,
            "volume": 669.7876798520389
        },
        "sites": [
            {
                "species": [
                    {
                        "element": "Rb",
                        "occu": 1
                    }
                ],
                "abc": [
                    0.28594951,
                    0.28594951,
                    0.28594951
                ],
                "xyz": [
                    2.501891135060802,
                    2.501891135060802,
                    2.501891135060802
                ],
                "label": "Rb",
                "properties": {}
            },
            {
                "species": [
                    {
                        "element": "Rb",
                        "occu": 1
                    }
                ],
                "abc": [
                    0.21405049,
                    0.71405049,
                    0.78594951
                ],
                "xyz": [
                    1.8728167199391978,
                    6.247524574939197,
                    6.876598990060802
                ],
                "label": "Rb",
                "properties": {}
            },
            {
                "species": [
                    {
                        "element": "Rb",
                        "occu": 1
                    }
                ],
                "abc": [
                    0.78594951,
                    0.21405049,
                    0.71405049
                ],
                "xyz": [
                    6.876598990060802,
                    1.8728167199391978,
                    6.247524574939197
                ],
                "label": "Rb",
                "properties": {}
            },
            {
                "species": [
                    {
                        "element": "Rb",
                        "occu": 1
                    }
                ],
                "abc": [
                    0.71405049,
                    0.78594951,
                    0.21405049
                ],
                "xyz": [
                    6.247524574939197,
                    6.876598990060802,
                    1.8728167199391978
                ],
                "label": "Rb",
                "properties": {}
            },
            {
                "species": [
                    {
                        "element": "Rb",
                        "occu": 1
                    }
                ],
                "abc": [
                    0.7094341,
                    0.2094341,
                    0.2905659
                ],
                "xyz": [
                    6.20713385974971,
                    1.832426004749711,
                    2.542281850250289
                ],
                "label": "Rb",
                "properties": {}
            },
            {
                "species": [
                    {
                        "element": "Rb",
                        "occu": 1
                    }
                ],
                "abc": [
                    0.7905659,
                    0.7905659,
                    0.7905659
                ],
                "xyz": [
                    6.9169897052502884,
                    6.9169897052502884,
                    6.9169897052502884
                ],
                "label": "Rb",
                "properties": {}
            },
            {
                "species": [
                    {
                        "element": "Rb",
                        "occu": 1
                    }
                ],
                "abc": [
                    0.97660235,
                    0.52339765,
                    0.47660235
                ],
                "xyz": [
                    8.544699943512917,
                    4.579423621487082,
                    4.1699920885129185
                ],
                "label": "Rb",
                "properties": {}
            },
            {
                "species": [
                    {
                        "element": "Rb",
                        "occu": 1
                    }
                ],
                "abc": [
                    0.52339765,
                    0.47660235,
                    0.97660235
                ],
                "xyz": [
                    4.579423621487082,
                    4.1699920885129185,
                    8.544699943512917
                ],
                "label": "Rb",
                "properties": {}
            },
            {
                "species": [
                    {
                        "element": "Rb",
                        "occu": 1
                    }
                ],
                "abc": [
                    0.47660235,
                    0.97660235,
                    0.52339765
                ],
                "xyz": [
                    4.1699920885129185,
                    8.544699943512917,
                    4.579423621487082
                ],
                "label": "Rb",
                "properties": {}
            },
            {
                "species": [
                    {
                        "element": "Rb",
                        "occu": 1
                    }
                ],
                "abc": [
                    0.02339765,
                    0.02339765,
                    0.02339765
                ],
                "xyz": [
                    0.20471576648708148,
                    0.20471576648708148,
                    0.20471576648708148
                ],
                "label": "Rb",
                "properties": {}
            },
            {
                "species": [
                    {
                        "element": "Rb",
                        "occu": 1
                    }
                ],
                "abc": [
                    0.2094341,
                    0.2905659,
                    0.7094341
                ],
                "xyz": [
                    1.832426004749711,
                    2.542281850250289,
                    6.20713385974971
                ],
                "label": "Rb",
                "properties": {}
            },
            {
                "species": [
                    {
                        "element": "Rb",
                        "occu": 1
                    }
                ],
                "abc": [
                    0.2905659,
                    0.7094341,
                    0.2094341
                ],
                "xyz": [
                    2.542281850250289,
                    6.20713385974971,
                    1.832426004749711
                ],
                "label": "Rb",
                "properties": {}
            },
            {
                "species": [
                    {
                        "element": "Bi",
                        "occu": 1
                    }
                ],
                "abc": [
                    0.48367989,
                    0.01632011,
                    0.98367989
                ],
                "xyz": [
                    4.231916428177072,
                    0.14279142682292809,
                    8.606624283177071
                ],
                "label": "Bi",
                "properties": {}
            },
            {
                "species": [
                    {
                        "element": "Bi",
                        "occu": 1
                    }
                ],
                "abc": [
                    0.01632011,
                    0.98367989,
                    0.48367989
                ],
                "xyz": [
                    0.14279142682292809,
                    8.606624283177071,
                    4.231916428177072
                ],
                "label": "Bi",
                "properties": {}
            },
            {
                "species": [
                    {
                        "element": "Bi",
                        "occu": 1
                    }
                ],
                "abc": [
                    0.98367989,
                    0.48367989,
                    0.01632011
                ],
                "xyz": [
                    8.606624283177071,
                    4.231916428177072,
                    0.14279142682292809
                ],
                "label": "Bi",
                "properties": {}
            },
            {
                "species": [
                    {
                        "element": "Bi",
                        "occu": 1
                    }
                ],
                "abc": [
                    0.51632011,
                    0.51632011,
                    0.51632011
                ],
                "xyz": [
                    4.517499281822928,
                    4.517499281822928,
                    4.517499281822928
                ],
                "label": "Bi",
                "properties": {}
            },
            {
                "species": [
                    {
                        "element": "O",
                        "occu": 1
                    }
                ],
                "abc": [
                    0.43823921,
                    0.00429973,
                    0.21688089
                ],
                "xyz": [
                    3.8343370287119884,
                    0.0376201252107583,
                    1.8975810661647816
                ],
                "label": "O",
                "properties": {}
            },
            {
                "species": [
                    {
                        "element": "O",
                        "occu": 1
                    }
                ],
                "abc": [
                    0.93823921,
                    0.49570027,
                    0.78311911
                ],
                "xyz": [
                    8.209044883711988,
                    4.337087729789241,
                    6.851834643835217
                ],
                "label": "O",
                "properties": {}
            },
            {
                "species": [
                    {
                        "element": "O",
                        "occu": 1
                    }
                ],
                "abc": [
                    0.56176079,
                    0.50429973,
                    0.28311911
                ],
                "xyz": [
                    4.91507868128801,
                    4.412327980210757,
                    2.4771267888352178
                ],
                "label": "O",
                "properties": {}
            },
            {
                "species": [
                    {
                        "element": "O",
                        "occu": 1
                    }
                ],
                "abc": [
                    0.49570027,
                    0.78311911,
                    0.93823921
                ],
                "xyz": [
                    4.337087729789241,
                    6.851834643835217,
                    8.209044883711988
                ],
                "label": "O",
                "properties": {}
            },
            {
                "species": [
                    {
                        "element": "O",
                        "occu": 1
                    }
                ],
                "abc": [
                    0.00429973,
                    0.21688089,
                    0.43823921
                ],
                "xyz": [
                    0.0376201252107583,
                    1.8975810661647816,
                    3.8343370287119884
                ],
                "label": "O",
                "properties": {}
            },
            {
                "species": [
                    {
                        "element": "O",
                        "occu": 1
                    }
                ],
                "abc": [
                    0.21688089,
                    0.43823921,
                    0.00429973
                ],
                "xyz": [
                    1.8975810661647816,
                    3.8343370287119884,
                    0.0376201252107583
                ],
                "label": "O",
                "properties": {}
            },
            {
                "species": [
                    {
                        "element": "O",
                        "occu": 1
                    }
                ],
                "abc": [
                    0.50429973,
                    0.28311911,
                    0.56176079
                ],
                "xyz": [
                    4.412327980210757,
                    2.4771267888352178,
                    4.91507868128801
                ],
                "label": "O",
                "properties": {}
            },
            {
                "species": [
                    {
                        "element": "O",
                        "occu": 1
                    }
                ],
                "abc": [
                    0.99570027,
                    0.71688089,
                    0.06176079
                ],
                "xyz": [
                    8.711795584789241,
                    6.272288921164781,
                    0.5403708262880109
                ],
                "label": "O",
                "properties": {}
            },
            {
                "species": [
                    {
                        "element": "O",
                        "occu": 1
                    }
                ],
                "abc": [
                    0.71688089,
                    0.06176079,
                    0.99570027
                ],
                "xyz": [
                    6.272288921164781,
                    0.5403708262880109,
                    8.711795584789241
                ],
                "label": "O",
                "properties": {}
            },
            {
                "species": [
                    {
                        "element": "O",
                        "occu": 1
                    }
                ],
                "abc": [
                    0.06176079,
                    0.99570027,
                    0.71688089
                ],
                "xyz": [
                    0.5403708262880109,
                    8.711795584789241,
                    6.272288921164781
                ],
                "label": "O",
                "properties": {}
            },
            {
                "species": [
                    {
                        "element": "O",
                        "occu": 1
                    }
                ],
                "abc": [
                    0.28311911,
                    0.56176079,
                    0.50429973
                ],
                "xyz": [
                    2.4771267888352178,
                    4.91507868128801,
                    4.412327980210757
                ],
                "label": "O",
                "properties": {}
            },
            {
                "species": [
                    {
                        "element": "O",
                        "occu": 1
                    }
                ],
                "abc": [
                    0.78311911,
                    0.93823921,
                    0.49570027
                ],
                "xyz": [
                    6.851834643835217,
                    8.209044883711988,
                    4.337087729789241
                ],
                "label": "O",
                "properties": {}
            }
        ]
    },
    "spacegroup": {
        "source": "spglib",
        "symbol": "P2_13",
        "number": 198,
        "point_group": "23",
        "crystal_system": "cubic",
        "hall": "P 2ac 2ab 3"
    },
    "dielectric": {
        "epsilon_ionic": [
            [
                5.02767052,
                -6.9e-07,
                -7e-07
            ],
            [
                -6.9e-07,
                5.02767625,
                -6.9e-07
            ],
            [
                -7e-07,
                -6.9e-07,
                5.02766158
            ]
        ],
        "epsilon_ionic_avg": 5.027669450000002,
        "epsilon_ionic_eig": [
            5.027661488168111,
            5.027670505163959,
            5.0276763566679366
        ],
        "epsilon_electronic": [
            [
                3.33204541,
                0.0,
                0.0
            ],
            [
                -0.0,
                3.33204541,
                0.0
            ],
            [
                0.0,
                -0.0,
                3.33204541
            ]
        ],
        "epsilon_electronic_avg": 3.3320454100000005,
        "epsilon_electronic_eig": [
            3.33204541,
            3.33204541,
            3.33204541
        ]
    },
    "phonon": {
        "lowest_freq": -0.02921204497064776,
        "frequency": [
            -0.02921204497064776,
            -0.02921204497064776,
            -0.02921204497064776,
            1.1859593355845124,
            1.1859593355845124,
            1.3812870134403652,
            1.3812870134403652,
            1.3812870134403652,
            1.467160744014561,
            1.5388888789043544,
            1.5388888789043544,
            1.5388888789043544,
            1.8550973827278472,
            1.8550973827278472,
            1.8570858141327178,
            1.8570858141327178,
            1.8570858141327178,
            1.918131988154477,
            1.9652576065522076,
            1.9652576065522076,
            1.9652576065522076,
            2.168639386357131,
            2.168639386357131,
            2.168639386357131,
            2.254675745526204,
            2.254675745526204,
            2.517415422644699,
            2.5613008823294012,
            2.5613008823294012,
            2.5613008823294012,
            2.5783935888421565,
            2.5783935888421565,
            2.5783935888421565,
            2.852218827709292,
            2.852218827709292,
            2.852218827709292,
            2.899703921094708,
            2.899703921094708,
            2.899703921094708,
            3.251840546283172,
            3.2813021012813133,
            3.2813021012813133,
            3.2813021012813133,
            3.346585189381318,
            3.346585189381318,
            3.4075975752400907,
            3.4075975752400907,
            3.4075975752400907,
            4.108002585843258,
            4.108002585843258,
            4.108002585843258,
            4.250595312044108,
            4.250595312044108,
            4.436629759899055,
            4.436629759899055,
            4.436629759899055,
            4.589483738235347,
            4.681471321594996,
            4.681471321594996,
            4.681471321594996,
            7.13459022919577,
            7.13459022919577,
            7.164212791221647,
            7.164212791221647,
            7.164212791221647,
            7.463272831877194,
            8.233650621253261,
            8.233650621253261,
            8.233650621253261,
            8.285376782424736,
            8.285376782424736,
            8.285376782424736,
            15.405892064087563,
            15.405892064087563,
            15.67618162133681,
            15.67618162133681,
            15.67618162133681,
            16.089184006276184,
            16.089184006276184,
            16.089184006276184,
            17.524075106197337,
            17.77021594542877,
            17.77021594542877,
            17.77021594542877
        ]
    },
    "born_effective_charge": {
        "avg_abs_trace": 1.569052142857143,
        "tensors": [
            [
                [
                    1.15078,
                    0.01063,
                    0.06379
                ],
                [
                    0.06379,
                    1.15078,
                    0.01063
                ],
                [
                    0.01063,
                    0.06378,
                    1.15077
                ]
            ],
            [
                [
                    1.1509,
                    0.01069,
                    -0.06364
                ],
                [
                    0.06364,
                    1.1509,
                    -0.01069
                ],
                [
                    -0.01063,
                    -0.06378,
                    1.15077
                ]
            ],
            [
                [
                    1.15078,
                    -0.01063,
                    -0.06379
                ],
                [
                    -0.06364,
                    1.1509,
                    0.01069
                ],
                [
                    -0.0107,
                    0.06364,
                    1.1509
                ]
            ],
            [
                [
                    1.1509,
                    -0.01069,
                    0.06364
                ],
                [
                    -0.06379,
                    1.15078,
                    -0.01063
                ],
                [
                    0.0107,
                    -0.06364,
                    1.1509
                ]
            ],
            [
                [
                    1.1397,
                    -0.09692,
                    0.12654
                ],
                [
                    -0.12655,
                    1.1397,
                    0.09691
                ],
                [
                    0.09688,
                    0.12654,
                    1.13968
                ]
            ],
            [
                [
                    1.13969,
                    -0.09688,
                    -0.12655
                ],
                [
                    -0.12654,
                    1.13968,
                    -0.09688
                ],
                [
                    -0.09688,
                    -0.12654,
                    1.13968
                ]
            ],
            [
                [
                    1.33238,
                    0.06133,
                    0.018
                ],
                [
                    -0.01837,
                    1.33191,
                    0.06136
                ],
                [
                    -0.06133,
                    -0.01801,
                    1.33238
                ]
            ],
            [
                [
                    1.33192,
                    0.06137,
                    -0.01839
                ],
                [
                    -0.01802,
                    1.33239,
                    -0.06133
                ],
                [
                    0.06133,
                    0.01801,
                    1.33238
                ]
            ],
            [
                [
                    1.33238,
                    -0.06133,
                    -0.018
                ],
                [
                    0.01802,
                    1.33239,
                    0.06133
                ],
                [
                    0.06136,
                    -0.01838,
                    1.33191
                ]
            ],
            [
                [
                    1.33192,
                    -0.06137,
                    0.01839
                ],
                [
                    0.01837,
                    1.33191,
                    -0.06136
                ],
                [
                    -0.06136,
                    0.01838,
                    1.33191
                ]
            ],
            [
                [
                    1.1397,
                    0.09692,
                    -0.12654
                ],
                [
                    0.12654,
                    1.13968,
                    0.09688
                ],
                [
                    -0.09692,
                    0.12655,
                    1.1397
                ]
            ],
            [
                [
                    1.13969,
                    0.09688,
                    0.12655
                ],
                [
                    0.12655,
                    1.1397,
                    -0.09691
                ],
                [
                    0.09692,
                    -0.12655,
                    1.1397
                ]
            ],
            [
                [
                    1.86946,
                    0.27442,
                    -0.33268
                ],
                [
                    0.33186,
                    1.86855,
                    0.27454
                ],
                [
                    -0.27441,
                    0.33268,
                    1.86946
                ]
            ],
            [
                [
                    1.86855,
                    0.27454,
                    0.33186
                ],
                [
                    0.33268,
                    1.86946,
                    -0.27442
                ],
                [
                    0.27441,
                    -0.33268,
                    1.86946
                ]
            ],
            [
                [
                    1.86946,
                    -0.27442,
                    0.33268
                ],
                [
                    -0.33268,
                    1.86946,
                    0.27442
                ],
                [
                    0.27454,
                    0.33186,
                    1.86855
                ]
            ],
            [
                [
                    1.86855,
                    -0.27454,
                    -0.33186
                ],
                [
                    -0.33186,
                    1.86855,
                    -0.27454
                ],
                [
                    -0.27454,
                    -0.33186,
                    1.86855
                ]
            ],
            [
                [
                    -1.4211,
                    -0.00226,
                    0.51262
                ],
                [
                    0.04213,
                    -1.39255,
                    -0.25708
                ],
                [
                    0.18819,
                    0.01676,
                    -2.67874
                ]
            ],
            [
                [
                    -1.4211,
                    0.00226,
                    -0.51262
                ],
                [
                    -0.04196,
                    -1.39255,
                    -0.25526
                ],
                [
                    -0.1879,
                    0.01717,
                    -2.67801
                ]
            ],
            [
                [
                    -1.42043,
                    0.00264,
                    0.51004
                ],
                [
                    -0.04213,
                    -1.39255,
                    0.25708
                ],
                [
                    0.1879,
                    -0.01717,
                    -2.67801
                ]
            ],
            [
                [
                    -1.39254,
                    -0.25526,
                    -0.04196
                ],
                [
                    0.01716,
                    -2.678,
                    -0.1879
                ],
                [
                    0.00226,
                    -0.51262,
                    -1.4211
                ]
            ],
            [
                [
                    -1.39255,
                    -0.25708,
                    0.04214
                ],
                [
                    0.01676,
                    -2.67874,
                    0.18819
                ],
                [
                    -0.00226,
                    0.51262,
                    -1.4211
                ]
            ],
            [
                [
                    -2.67874,
                    0.18819,
                    0.01676
                ],
                [
                    0.51262,
                    -1.4211,
                    -0.00226
                ],
                [
                    -0.25709,
                    0.04213,
                    -1.39255
                ]
            ],
            [
                [
                    -1.39255,
                    0.25708,
                    -0.04214
                ],
                [
                    -0.01716,
                    -2.678,
                    0.1879
                ],
                [
                    0.00264,
                    0.51004,
                    -1.42042
                ]
            ],
            [
                [
                    -1.39254,
                    0.25526,
                    0.04196
                ],
                [
                    -0.01676,
                    -2.67874,
                    -0.18819
                ],
                [
                    -0.00264,
                    -0.51004,
                    -1.42042
                ]
            ],
            [
                [
                    -2.67874,
                    -0.18819,
                    -0.01676
                ],
                [
                    -0.51003,
                    -1.42042,
                    -0.00264
                ],
                [
                    0.25526,
                    0.04196,
                    -1.39254
                ]
            ],
            [
                [
                    -1.42043,
                    -0.00264,
                    -0.51004
                ],
                [
                    0.04196,
                    -1.39255,
                    0.25526
                ],
                [
                    -0.18819,
                    -0.01676,
                    -2.67874
                ]
            ],
            [
                [
                    -2.67801,
                    0.1879,
                    -0.01716
                ],
                [
                    0.51003,
                    -1.42042,
                    0.00264
                ],
                [
                    0.25709,
                    -0.04213,
                    -1.39255
                ]
            ],
            [
                [
                    -2.67801,
                    -0.1879,
                    0.01716
                ],
                [
                    -0.51262,
                    -1.4211,
                    0.00226
                ],
                [
                    -0.25526,
                    -0.04196,
                    -1.39254
                ]
            ]
        ]
    },
    "band_gap": 3.1851,
    "is_direct": false,
    "formula": "Rb3BiO3"
}