{
    "mp_id": "mp-29188",
    "nelements": 3,
    "nsites": 10,
    "elements": [
        "Hg",
        "O",
        "V"
    ],
    "structure": {
        "@module": "pymatgen.core.structure",
        "@class": "Structure",
        "charge": null,
        "lattice": {
            "matrix": [
                [
                    3.59536273,
                    -0.00754362,
                    0.00944584
                ],
                [
                    -0.11507692,
                    4.90473201,
                    -0.01181925
                ],
                [
                    -1.61968559,
                    -0.65848705,
                    8.40480455
                ]
            ],
            "a": 3.595383051966656,
            "b": 4.906096053085986,
            "c": 8.584737976733598,
            "alpha": 94.27917189699538,
            "beta": 100.71572019606519,
            "gamma": 91.46462006015051,
            "volume": 148.25309848540385
        },
        "sites": [
            {
                "species": [
                    {
                        "element": "V",
                        "occu": 1
                    }
                ],
                "abc": [
                    0.68253284,
                    0.38486431,
                    0.86157653
                ],
                "xyz": [
                    1.0141810452011253,
                    1.3151705447921456,
                    7.24328062802263
                ],
                "label": "V",
                "properties": {}
            },
            {
                "species": [
                    {
                        "element": "V",
                        "occu": 1
                    }
                ],
                "abc": [
                    0.31746716,
                    0.61513569,
                    0.13842347
                ],
                "xyz": [
                    0.846419174798875,
                    2.9235307952078537,
                    1.1591505119773704
                ],
                "label": "V",
                "properties": {}
            },
            {
                "species": [
                    {
                        "element": "Hg",
                        "occu": 1
                    }
                ],
                "abc": [
                    0.15224124,
                    0.1820593,
                    0.42896662
                ],
                "xyz": [
                    -0.16837939624137666,
                    0.6093346622130333,
                    3.6046668415870378
                ],
                "label": "Hg",
                "properties": {}
            },
            {
                "species": [
                    {
                        "element": "Hg",
                        "occu": 1
                    }
                ],
                "abc": [
                    0.84775876,
                    0.8179407,
                    0.57103338
                ],
                "xyz": [
                    2.0289796162413767,
                    3.629366677786967,
                    4.797764298412963
                ],
                "label": "Hg",
                "properties": {}
            },
            {
                "species": [
                    {
                        "element": "O",
                        "occu": 1
                    }
                ],
                "abc": [
                    0.60803067,
                    0.48489591,
                    0.66838695
                ],
                "xyz": [
                    1.0477137703124815,
                    1.933573588008256,
                    5.617673932960268
                ],
                "label": "O",
                "properties": {}
            },
            {
                "species": [
                    {
                        "element": "O",
                        "occu": 1
                    }
                ],
                "abc": [
                    0.39196933,
                    0.51510409,
                    0.33161305
                ],
                "xyz": [
                    0.8128864496875187,
                    2.3051277519917437,
                    2.7847572070397324
                ],
                "label": "O",
                "properties": {}
            },
            {
                "species": [
                    {
                        "element": "O",
                        "occu": 1
                    }
                ],
                "abc": [
                    0.65995986,
                    0.0522017,
                    0.83762595
                ],
                "xyz": [
                    1.0100971920601929,
                    -0.30050897825162365,
                    7.045699286059329
                ],
                "label": "O",
                "properties": {}
            },
            {
                "species": [
                    {
                        "element": "O",
                        "occu": 1
                    }
                ],
                "abc": [
                    0.34004014,
                    0.9477983,
                    0.16237405
                ],
                "xyz": [
                    0.8505030279398067,
                    4.539210318251623,
                    1.35673185394067
                ],
                "label": "O",
                "properties": {}
            },
            {
                "species": [
                    {
                        "element": "O",
                        "occu": 1
                    }
                ],
                "abc": [
                    0.20786965,
                    0.48207829,
                    0.90852701
                ],
                "xyz": [
                    -0.7796373987267081,
                    1.7646434599797094,
                    7.632257647071569
                ],
                "label": "O",
                "properties": {}
            },
            {
                "species": [
                    {
                        "element": "O",
                        "occu": 1
                    }
                ],
                "abc": [
                    0.79213035,
                    0.51792171,
                    0.09147299
                ],
                "xyz": [
                    2.6402376187267085,
                    2.4740578800202906,
                    0.7701734929284311
                ],
                "label": "O",
                "properties": {}
            }
        ]
    },
    "spacegroup": {
        "source": "spglib",
        "symbol": "P-1",
        "number": 2,
        "point_group": "-1",
        "crystal_system": "triclinic",
        "hall": "-P 1"
    },
    "dielectric": {
        "epsilon_ionic": [
            [
                12.42144455,
                -2.38817194,
                1.96657883
            ],
            [
                -2.38817194,
                6.59074984,
                0.04818033
            ],
            [
                1.96657883,
                0.04818033,
                10.2175937
            ]
        ],
        "epsilon_ionic_avg": 9.743262696666667,
        "epsilon_ionic_eig": [
            14.14577528528502,
            5.617292485967049,
            9.466720318747933
        ],
        "epsilon_electronic": [
            [
                6.55485083,
                0.49891641,
                -0.49263603
            ],
            [
                0.4988983,
                5.61502061,
                -0.7055081
            ],
            [
                -0.49263125,
                -0.70551351,
                6.00770113
            ]
        ],
        "epsilon_electronic_avg": 6.059190856666671,
        "epsilon_electronic_eig": [
            7.245663004966051,
            5.86138294737418,
            5.070526617659781
        ]
    },
    "phonon": {
        "lowest_freq": -0.08634809879812269,
        "frequency": [
            -0.08634809879812269,
            -0.029637967241459593,
            -0.021699118743921733,
            1.1465568242290423,
            1.5452753324166069,
            1.6531713117594136,
            1.933090373520981,
            3.2899601706019874,
            3.314762139423334,
            4.512367396501275,
            4.804291393402738,
            5.148932262347133,
            5.538119265710299,
            6.746204361323096,
            6.809858383810022,
            7.9411875432502015,
            8.116649968784778,
            8.423264420404077,
            8.8809537970933,
            10.793744073281605,
            11.718096036763633,
            13.21669472673852,
            15.702743482631726,
            15.875111687803965,
            16.59061722672134,
            21.499356223069583,
            21.544184797574715,
            24.72011626241031,
            28.000636180159212,
            28.72201830660896
        ]
    },
    "born_effective_charge": {
        "avg_abs_trace": 2.614071666666667,
        "tensors": [
            [
                [
                    5.69759,
                    -0.19012,
                    -0.45734
                ],
                [
                    -0.00029,
                    3.22717,
                    -1.50352
                ],
                [
                    -0.06773,
                    0.20083,
                    5.39562
                ]
            ],
            [
                [
                    5.69753,
                    -0.19018,
                    -0.45758
                ],
                [
                    -0.00054,
                    3.22741,
                    -1.50352
                ],
                [
                    -0.06786,
                    0.20054,
                    5.39555
                ]
            ],
            [
                [
                    1.34848,
                    0.52982,
                    -0.23621
                ],
                [
                    0.50983,
                    2.17493,
                    0.09563
                ],
                [
                    -0.36116,
                    -0.54269,
                    1.76174
                ]
            ],
            [
                [
                    1.34852,
                    0.52976,
                    -0.2362
                ],
                [
                    0.50993,
                    2.17487,
                    0.09554
                ],
                [
                    -0.36111,
                    -0.54262,
                    1.76166
                ]
            ],
            [
                [
                    -1.50462,
                    -0.60548,
                    0.31105
                ],
                [
                    -0.61869,
                    -2.3131,
                    1.69875
                ],
                [
                    0.29189,
                    1.68904,
                    -3.85884
                ]
            ],
            [
                [
                    -1.50454,
                    -0.60557,
                    0.31156
                ],
                [
                    -0.6182,
                    -2.31323,
                    1.69958
                ],
                [
                    0.2918,
                    1.68918,
                    -3.85894
                ]
            ],
            [
                [
                    -0.60888,
                    0.16013,
                    0.17449
                ],
                [
                    0.12887,
                    -2.60191,
                    -0.31601
                ],
                [
                    0.08024,
                    -0.57528,
                    -0.8199
                ]
            ],
            [
                [
                    -0.60889,
                    0.1602,
                    0.17448
                ],
                [
                    0.12919,
                    -2.60289,
                    -0.31631
                ],
                [
                    0.08045,
                    -0.57531,
                    -0.81981
                ]
            ],
            [
                [
                    -4.93263,
                    0.10575,
                    0.20777
                ],
                [
                    -0.01994,
                    -0.48673,
                    0.0249
                ],
                [
                    0.05659,
                    -0.77194,
                    -2.47852
                ]
            ],
            [
                [
                    -4.93257,
                    0.1057,
                    0.20797
                ],
                [
                    -0.02017,
                    -0.48652,
                    0.02497
                ],
                [
                    0.05688,
                    -0.77177,
                    -2.47856
                ]
            ]
        ]
    },
    "band_gap": 2.0272,
    "is_direct": false,
    "formula": "VHgO3"
}