{
    "mp_id": "mp-28712",
    "nelements": 3,
    "nsites": 15,
    "elements": [
        "Hg",
        "O",
        "Si"
    ],
    "structure": {
        "@module": "pymatgen.core.structure",
        "@class": "Structure",
        "charge": null,
        "lattice": {
            "matrix": [
                [
                    5.92027476,
                    -3.79867784,
                    0.00214241
                ],
                [
                    5.92027476,
                    3.79867784,
                    0.00214241
                ],
                [
                    -2.18070821,
                    0.0,
                    5.61944943
                ]
            ],
            "a": 7.034174518443562,
            "b": 7.034174518443562,
            "c": 6.027744204384318,
            "alpha": 107.71033885440306,
            "beta": 107.71033885440306,
            "gamma": 65.37160559386243,
            "volume": 252.78952473185643
        },
        "sites": [
            {
                "species": [
                    {
                        "element": "Si",
                        "occu": 1
                    }
                ],
                "abc": [
                    0.35284385,
                    0.35284385,
                    0.89899059
                ],
                "xyz": [
                    2.217428918426708,
                    0.0,
                    5.053344030936221
                ],
                "label": "Si",
                "properties": {}
            },
            {
                "species": [
                    {
                        "element": "Si",
                        "occu": 1
                    }
                ],
                "abc": [
                    0.64715615,
                    0.64715615,
                    0.10100941
                ],
                "xyz": [
                    7.442412391573292,
                    0.0,
                    0.5703902190637793
                ],
                "label": "Si",
                "properties": {}
            },
            {
                "species": [
                    {
                        "element": "Hg",
                        "occu": 1
                    }
                ],
                "abc": [
                    0.35347917,
                    0.87831428,
                    0.5834805
                ],
                "xyz": [
                    6.020154954843417,
                    1.9936795020109621,
                    3.2814781697463293
                ],
                "label": "Hg",
                "properties": {}
            },
            {
                "species": [
                    {
                        "element": "Hg",
                        "occu": 1
                    }
                ],
                "abc": [
                    0.12168572,
                    0.64652083,
                    0.4165195
                ],
                "xyz": [
                    3.6396863551565835,
                    1.9936795020109623,
                    2.3422560802536707
                ],
                "label": "Hg",
                "properties": {}
            },
            {
                "species": [
                    {
                        "element": "Hg",
                        "occu": 1
                    }
                ],
                "abc": [
                    0.64652083,
                    0.12168572,
                    0.4165195
                ],
                "xyz": [
                    3.6396863551565835,
                    -1.9936795020109623,
                    2.3422560802536707
                ],
                "label": "Hg",
                "properties": {}
            },
            {
                "species": [
                    {
                        "element": "Hg",
                        "occu": 1
                    }
                ],
                "abc": [
                    0.87831428,
                    0.35347917,
                    0.5834805
                ],
                "xyz": [
                    6.020154954843417,
                    -1.9936795020109621,
                    3.2814781697463293
                ],
                "label": "Hg",
                "properties": {}
            },
            {
                "species": [
                    {
                        "element": "Hg",
                        "occu": 1
                    }
                ],
                "abc": [
                    0.8853126,
                    0.8853126,
                    0.95239345
                ],
                "xyz": [
                    8.405695465414727,
                    0.0,
                    5.355720234872965
                ],
                "label": "Hg",
                "properties": {}
            },
            {
                "species": [
                    {
                        "element": "Hg",
                        "occu": 1
                    }
                ],
                "abc": [
                    0.1146874,
                    0.1146874,
                    0.04760655
                ],
                "xyz": [
                    1.2541458445852725,
                    0.0,
                    0.2680140151270345
                ],
                "label": "Hg",
                "properties": {}
            },
            {
                "species": [
                    {
                        "element": "O",
                        "occu": 1
                    }
                ],
                "abc": [
                    0.5,
                    0.5,
                    0.0
                ],
                "xyz": [
                    5.92027476,
                    0.0,
                    0.00214241
                ],
                "label": "O",
                "properties": {}
            },
            {
                "species": [
                    {
                        "element": "O",
                        "occu": 1
                    }
                ],
                "abc": [
                    0.48598476,
                    0.12771805,
                    0.73843471
                ],
                "xyz": [
                    2.022978621538106,
                    -1.3609398120867064,
                    4.150911313238888
                ],
                "label": "O",
                "properties": {}
            },
            {
                "species": [
                    {
                        "element": "O",
                        "occu": 1
                    }
                ],
                "abc": [
                    0.87228195,
                    0.51401524,
                    0.26156529
                ],
                "xyz": [
                    7.636862688461894,
                    -1.360939812086706,
                    1.4728229367611128
                ],
                "label": "O",
                "properties": {}
            },
            {
                "species": [
                    {
                        "element": "O",
                        "occu": 1
                    }
                ],
                "abc": [
                    0.51401524,
                    0.87228195,
                    0.26156529
                ],
                "xyz": [
                    7.636862688461894,
                    1.360939812086706,
                    1.4728229367611128
                ],
                "label": "O",
                "properties": {}
            },
            {
                "species": [
                    {
                        "element": "O",
                        "occu": 1
                    }
                ],
                "abc": [
                    0.12771805,
                    0.48598476,
                    0.73843471
                ],
                "xyz": [
                    2.022978621538106,
                    1.3609398120867064,
                    4.150911313238888
                ],
                "label": "O",
                "properties": {}
            },
            {
                "species": [
                    {
                        "element": "O",
                        "occu": 1
                    }
                ],
                "abc": [
                    0.69307505,
                    0.69307505,
                    0.87185051
                ],
                "xyz": [
                    6.305137885551789,
                    0.0,
                    4.9022895533004505
                ],
                "label": "O",
                "properties": {}
            },
            {
                "species": [
                    {
                        "element": "O",
                        "occu": 1
                    }
                ],
                "abc": [
                    0.30692495,
                    0.30692495,
                    0.12814949
                ],
                "xyz": [
                    3.3547034244482106,
                    0.0,
                    0.7214446966995498
                ],
                "label": "O",
                "properties": {}
            }
        ]
    },
    "spacegroup": {
        "source": "spglib",
        "symbol": "C2/m",
        "number": 12,
        "point_group": "2/m",
        "crystal_system": "monoclinic",
        "hall": "-C 2y"
    },
    "dielectric": {
        "epsilon_ionic": [
            [
                4.60189513,
                -5e-08,
                -0.47870422
            ],
            [
                -5e-08,
                8.50387383,
                6e-08
            ],
            [
                -0.47870422,
                6e-08,
                5.32973722
            ]
        ],
        "epsilon_ionic_avg": 6.145168726666668,
        "epsilon_ionic_eig": [
            4.364487431932034,
            5.5671449180679655,
            8.503873830000003
        ],
        "epsilon_electronic": [
            [
                7.31923385,
                0.0,
                0.5186147
            ],
            [
                0.0,
                5.02468228,
                0.0
            ],
            [
                0.51861583,
                0.0,
                5.65150231
            ]
        ],
        "epsilon_electronic_avg": 5.998472813333334,
        "epsilon_electronic_eig": [
            7.467352761890911,
            5.503383398109088,
            5.02468228
        ]
    },
    "phonon": {
        "lowest_freq": -0.02117951889836403,
        "frequency": [
            -0.02117951889836403,
            -0.02111562698991012,
            -0.010401980327758704,
            1.2725343686873172,
            1.349578187886468,
            1.3784981058007117,
            1.4972463357604244,
            1.514767488204896,
            1.558524499853795,
            1.6352995545346058,
            1.7120668558916317,
            1.7630576984799882,
            2.0091687516378984,
            2.119321244083049,
            2.582995011298602,
            3.242623869347732,
            3.444076912426142,
            4.067783029468565,
            4.388969434237696,
            5.261247188697015,
            5.8055044006057805,
            5.809099761641929,
            5.927851894556823,
            5.993796386177353,
            6.4293635531922675,
            7.577834015022159,
            8.033056476673263,
            10.739138147748042,
            11.284093840489719,
            11.315433848608778,
            11.84363249763208,
            12.70711980503108,
            13.663190103353982,
            13.894291993528137,
            14.041681100919977,
            14.334841011301748,
            14.435916484818337,
            18.554062796864855,
            23.346995656301047,
            24.81295487393459,
            25.16753044717795,
            25.510858347728995,
            26.150486655260075,
            26.265302536904663,
            33.34575236086011
        ]
    },
    "born_effective_charge": {
        "avg_abs_trace": 2.209091777777777,
        "tensors": [
            [
                [
                    3.51318,
                    0.0,
                    -0.13192
                ],
                [
                    -0.00015,
                    3.66062,
                    -0.00015
                ],
                [
                    0.0257,
                    0.0,
                    3.6508
                ]
            ],
            [
                [
                    3.51308,
                    0.0,
                    -0.13196
                ],
                [
                    0.00015,
                    3.66062,
                    0.00015
                ],
                [
                    0.02556,
                    0.0,
                    3.65128
                ]
            ],
            [
                [
                    2.37753,
                    -0.18925,
                    0.28342
                ],
                [
                    -0.28792,
                    0.9448,
                    -0.23419
                ],
                [
                    0.3027,
                    -0.24618,
                    1.36927
                ]
            ],
            [
                [
                    2.37745,
                    0.18839,
                    0.28344
                ],
                [
                    0.28792,
                    0.9448,
                    0.23419
                ],
                [
                    0.30284,
                    0.24772,
                    1.36934
                ]
            ],
            [
                [
                    2.37745,
                    -0.18839,
                    0.28344
                ],
                [
                    -0.28789,
                    0.94463,
                    -0.23409
                ],
                [
                    0.30284,
                    -0.24772,
                    1.36934
                ]
            ],
            [
                [
                    2.37753,
                    0.18925,
                    0.28342
                ],
                [
                    0.28789,
                    0.94463,
                    0.23409
                ],
                [
                    0.3027,
                    0.24618,
                    1.36927
                ]
            ],
            [
                [
                    2.27349,
                    0.0,
                    0.46332
                ],
                [
                    1e-05,
                    1.47274,
                    -6e-05
                ],
                [
                    0.46863,
                    0.0,
                    0.89856
                ]
            ],
            [
                [
                    2.27342,
                    0.0,
                    0.4632
                ],
                [
                    -1e-05,
                    1.47274,
                    6e-05
                ],
                [
                    0.46883,
                    0.0,
                    0.89799
                ]
            ],
            [
                [
                    -4.33627,
                    0.0,
                    -1.1211
                ],
                [
                    0.0,
                    -1.32363,
                    0.0
                ],
                [
                    -1.14416,
                    0.0,
                    -1.74796
                ]
            ],
            [
                [
                    -2.65685,
                    -0.11332,
                    -0.30779
                ],
                [
                    0.11062,
                    -2.24591,
                    -0.63443
                ],
                [
                    -0.23956,
                    -0.58379,
                    -2.03985
                ]
            ],
            [
                [
                    -2.65685,
                    0.11317,
                    -0.30749
                ],
                [
                    -0.11062,
                    -2.24591,
                    0.63443
                ],
                [
                    -0.23976,
                    0.58446,
                    -2.03985
                ]
            ],
            [
                [
                    -2.65685,
                    -0.11317,
                    -0.30749
                ],
                [
                    0.11078,
                    -2.24601,
                    -0.63454
                ],
                [
                    -0.23976,
                    -0.58446,
                    -2.03985
                ]
            ],
            [
                [
                    -2.65685,
                    0.11332,
                    -0.30779
                ],
                [
                    -0.11078,
                    -2.24601,
                    0.63454
                ],
                [
                    -0.23956,
                    0.58379,
                    -2.03985
                ]
            ],
            [
                [
                    -3.05968,
                    0.0,
                    0.2775
                ],
                [
                    0.00027,
                    -1.86906,
                    -0.0
                ],
                [
                    -0.04882,
                    0.0,
                    -2.33488
                ]
            ],
            [
                [
                    -3.05978,
                    0.0,
                    0.27781
                ],
                [
                    -0.00027,
                    -1.86906,
                    0.0
                ],
                [
                    -0.0482,
                    0.0,
                    -2.33361
                ]
            ]
        ]
    },
    "band_gap": 1.4165,
    "is_direct": false,
    "formula": "Si2Hg6O7"
}