{
    "mp_id": "mp-29680",
    "nelements": 3,
    "nsites": 34,
    "elements": [
        "Bi",
        "O",
        "Ta"
    ],
    "structure": {
        "@module": "pymatgen.core.structure",
        "@class": "Structure",
        "charge": null,
        "lattice": {
            "matrix": [
                [
                    6.5650281,
                    0.00012073,
                    0.00168929
                ],
                [
                    0.00593471,
                    7.66888309,
                    0.00091785
                ],
                [
                    0.09782199,
                    1.91394491,
                    9.75563998
                ]
            ],
            "a": 6.56502831845119,
            "b": 7.668885441269764,
            "c": 9.942095638225217,
            "alpha": 78.89344690141034,
            "beta": 89.42157766583696,
            "gamma": 89.9546051633636,
            "volume": 491.14888649378867
        },
        "sites": [
            {
                "species": [
                    {
                        "element": "Ta",
                        "occu": 1
                    }
                ],
                "abc": [
                    0.08128413,
                    0.29688668,
                    0.80929222
                ],
                "xyz": [
                    0.6145611093346337,
                    3.8257397785028564,
                    7.895573346842161
                ],
                "label": "Ta",
                "properties": {}
            },
            {
                "species": [
                    {
                        "element": "Ta",
                        "occu": 1
                    }
                ],
                "abc": [
                    0.91871587,
                    0.70311332,
                    0.19070778
                ],
                "xyz": [
                    6.054223690665366,
                    5.757208951497144,
                    1.8626737731578384
                ],
                "label": "Ta",
                "properties": {}
            },
            {
                "species": [
                    {
                        "element": "Ta",
                        "occu": 1
                    }
                ],
                "abc": [
                    0.08402412,
                    0.79837162,
                    0.80930661
                ],
                "xyz": [
                    0.635526796025056,
                    7.6715970272247676,
                    7.896178647091359
                ],
                "label": "Ta",
                "properties": {}
            },
            {
                "species": [
                    {
                        "element": "Ta",
                        "occu": 1
                    }
                ],
                "abc": [
                    0.91597588,
                    0.20162838,
                    0.19069339
                ],
                "xyz": [
                    6.033258003974944,
                    1.9113517027752314,
                    1.8620684729086403
                ],
                "label": "Ta",
                "properties": {}
            },
            {
                "species": [
                    {
                        "element": "Bi",
                        "occu": 1
                    }
                ],
                "abc": [
                    0.24569742,
                    0.62907059,
                    0.47898506
                ],
                "xyz": [
                    1.6635990896681503,
                    5.741049490669884,
                    4.6737982477943625
                ],
                "label": "Bi",
                "properties": {}
            },
            {
                "species": [
                    {
                        "element": "Bi",
                        "occu": 1
                    }
                ],
                "abc": [
                    0.75430258,
                    0.37092941,
                    0.52101494
                ],
                "xyz": [
                    5.00518571033185,
                    3.841899239330116,
                    5.0844488722056385
                ],
                "label": "Bi",
                "properties": {}
            },
            {
                "species": [
                    {
                        "element": "Bi",
                        "occu": 1
                    }
                ],
                "abc": [
                    0.24709651,
                    0.12761712,
                    0.47929528
                ],
                "xyz": [
                    1.6698385202473733,
                    1.8960553670671778,
                    4.676366746830264
                ],
                "label": "Bi",
                "properties": {}
            },
            {
                "species": [
                    {
                        "element": "Bi",
                        "occu": 1
                    }
                ],
                "abc": [
                    0.75290349,
                    0.87238288,
                    0.52070472
                ],
                "xyz": [
                    4.998946279752627,
                    7.686893362932822,
                    5.081880373169736
                ],
                "label": "Bi",
                "properties": {}
            },
            {
                "species": [
                    {
                        "element": "Bi",
                        "occu": 1
                    }
                ],
                "abc": [
                    0.5501739,
                    0.04650941,
                    0.81844908
                ],
                "xyz": [
                    3.6922454509664804,
                    1.9232081011300068,
                    7.985466658371719
                ],
                "label": "Bi",
                "properties": {}
            },
            {
                "species": [
                    {
                        "element": "Bi",
                        "occu": 1
                    }
                ],
                "abc": [
                    0.4498261,
                    0.95349059,
                    0.18155092
                ],
                "xyz": [
                    2.97653934903352,
                    7.659740628869994,
                    1.772780461628282
                ],
                "label": "Bi",
                "properties": {}
            },
            {
                "species": [
                    {
                        "element": "Bi",
                        "occu": 1
                    }
                ],
                "abc": [
                    0.61013415,
                    0.54465057,
                    0.83130456
                ],
                "xyz": [
                    4.090100049059175,
                    5.768006338999579,
                    8.111438602136236
                ],
                "label": "Bi",
                "properties": {}
            },
            {
                "species": [
                    {
                        "element": "Bi",
                        "occu": 1
                    }
                ],
                "abc": [
                    0.38986585,
                    0.45534943,
                    0.16869544
                ],
                "xyz": [
                    2.578684750940826,
                    3.814942391000419,
                    1.6468085178637633
                ],
                "label": "Bi",
                "properties": {}
            },
            {
                "species": [
                    {
                        "element": "O",
                        "occu": 1
                    }
                ],
                "abc": [
                    0.78095713,
                    0.26960606,
                    0.76255259
                ],
                "xyz": [
                    5.20319994895915,
                    3.5271552876876466,
                    7.440755254848857
                ],
                "label": "O",
                "properties": {}
            },
            {
                "species": [
                    {
                        "element": "O",
                        "occu": 1
                    }
                ],
                "abc": [
                    0.21904287,
                    0.73039394,
                    0.23744741
                ],
                "xyz": [
                    1.4655848510408502,
                    6.0557934423123525,
                    2.317491865151143
                ],
                "label": "O",
                "properties": {}
            },
            {
                "species": [
                    {
                        "element": "O",
                        "occu": 1
                    }
                ],
                "abc": [
                    0.37199935,
                    0.33607833,
                    0.83406736
                ],
                "xyz": [
                    2.525770842306816,
                    4.173749311603102,
                    8.137797767506205
                ],
                "label": "O",
                "properties": {}
            },
            {
                "species": [
                    {
                        "element": "O",
                        "occu": 1
                    }
                ],
                "abc": [
                    0.62800065,
                    0.66392167,
                    0.16593264
                ],
                "xyz": [
                    4.143013957693185,
                    5.409199418396897,
                    1.620449352493795
                ],
                "label": "O",
                "properties": {}
            },
            {
                "species": [
                    {
                        "element": "O",
                        "occu": 1
                    }
                ],
                "abc": [
                    0.37189439,
                    0.74580837,
                    0.84875051
                ],
                "xyz": [
                    2.528949740875597,
                    7.344023814357572,
                    8.281417186087879
                ],
                "label": "O",
                "properties": {}
            },
            {
                "species": [
                    {
                        "element": "O",
                        "occu": 1
                    }
                ],
                "abc": [
                    0.62810561,
                    0.25419163,
                    0.15124949
                ],
                "xyz": [
                    4.139835059124404,
                    2.2389249156424276,
                    1.4768299339121225
                ],
                "label": "O",
                "properties": {}
            },
            {
                "species": [
                    {
                        "element": "O",
                        "occu": 1
                    }
                ],
                "abc": [
                    0.11376454,
                    0.83249758,
                    0.60205742
                ],
                "xyz": [
                    0.8107024885152416,
                    7.536645083057568,
                    5.874411726011231
                ],
                "label": "O",
                "properties": {}
            },
            {
                "species": [
                    {
                        "element": "O",
                        "occu": 1
                    }
                ],
                "abc": [
                    0.88623546,
                    0.16750242,
                    0.39794258
                ],
                "xyz": [
                    5.858082311484758,
                    2.046303646942431,
                    3.8838353939887686
                ],
                "label": "O",
                "properties": {}
            },
            {
                "species": [
                    {
                        "element": "O",
                        "occu": 1
                    }
                ],
                "abc": [
                    0.78402251,
                    0.85120186,
                    0.76243468
                ],
                "xyz": [
                    5.226764323015705,
                    7.987120180361658,
                    7.440143963359625
                ],
                "label": "O",
                "properties": {}
            },
            {
                "species": [
                    {
                        "element": "O",
                        "occu": 1
                    }
                ],
                "abc": [
                    0.21597749,
                    0.14879814,
                    0.23756532
                ],
                "xyz": [
                    1.4420204769842953,
                    1.5958285496383415,
                    2.3181031566403743
                ],
                "label": "O",
                "properties": {}
            },
            {
                "species": [
                    {
                        "element": "O",
                        "occu": 1
                    }
                ],
                "abc": [
                    0.09521218,
                    0.36279371,
                    0.59826719
                ],
                "xyz": [
                    0.6857473996984401,
                    3.9272844858643583,
                    5.836973148676531
                ],
                "label": "O",
                "properties": {}
            },
            {
                "species": [
                    {
                        "element": "O",
                        "occu": 1
                    }
                ],
                "abc": [
                    0.90478782,
                    0.63720629,
                    0.40173281
                ],
                "xyz": [
                    5.98303740030156,
                    5.655664244135641,
                    3.921273971323468
                ],
                "label": "O",
                "properties": {}
            },
            {
                "species": [
                    {
                        "element": "O",
                        "occu": 1
                    }
                ],
                "abc": [
                    0.98163879,
                    0.45333557,
                    0.18644089
                ],
                "xyz": [
                    6.465414674417805,
                    3.8335335925509977,
                    1.8209245670352656
                ],
                "label": "O",
                "properties": {}
            },
            {
                "species": [
                    {
                        "element": "O",
                        "occu": 1
                    }
                ],
                "abc": [
                    0.01836121,
                    0.54666443,
                    0.81355911
                ],
                "xyz": [
                    0.2033701255821952,
                    5.7494151374490015,
                    7.937322552964734
                ],
                "label": "O",
                "properties": {}
            },
            {
                "species": [
                    {
                        "element": "O",
                        "occu": 1
                    }
                ],
                "abc": [
                    0.0029269,
                    0.21508185,
                    0.99970503
                ],
                "xyz": [
                    0.1182847645995132,
                    3.562818269465451,
                    9.752964716134022
                ],
                "label": "O",
                "properties": {}
            },
            {
                "species": [
                    {
                        "element": "O",
                        "occu": 1
                    }
                ],
                "abc": [
                    0.9970731,
                    0.78491815,
                    0.00029497
                ],
                "xyz": [
                    6.550500035400487,
                    6.020130460534548,
                    0.0052824038659771
                ],
                "label": "O",
                "properties": {}
            },
            {
                "species": [
                    {
                        "element": "O",
                        "occu": 1
                    }
                ],
                "abc": [
                    0.41746998,
                    0.39252683,
                    0.38572495
                ],
                "xyz": [
                    2.7807640647113576,
                    3.7485490748214945,
                    3.7640592521169305
                ],
                "label": "O",
                "properties": {}
            },
            {
                "species": [
                    {
                        "element": "O",
                        "occu": 1
                    }
                ],
                "abc": [
                    0.58253002,
                    0.60747317,
                    0.61427505
                ],
                "xyz": [
                    3.8880207352886424,
                    5.834399655178506,
                    5.99418786788307
                ],
                "label": "O",
                "properties": {}
            },
            {
                "species": [
                    {
                        "element": "O",
                        "occu": 1
                    }
                ],
                "abc": [
                    0.83224835,
                    0.94634144,
                    0.21412994
                ],
                "xyz": [
                    5.490296682785399,
                    7.66731525266715,
                    2.0912491118848764
                ],
                "label": "O",
                "properties": {}
            },
            {
                "species": [
                    {
                        "element": "O",
                        "occu": 1
                    }
                ],
                "abc": [
                    0.16775165,
                    0.05365856,
                    0.78587006
                ],
                "xyz": [
                    1.178488117214602,
                    1.9156334773328498,
                    7.666998008115124
                ],
                "label": "O",
                "properties": {}
            },
            {
                "species": [
                    {
                        "element": "O",
                        "occu": 1
                    }
                ],
                "abc": [
                    0.45667697,
                    0.90665806,
                    0.3974713
                ],
                "xyz": [
                    3.042359326862007,
                    7.713847970862877,
                    3.8791905411215963
                ],
                "label": "O",
                "properties": {}
            },
            {
                "species": [
                    {
                        "element": "O",
                        "occu": 1
                    }
                ],
                "abc": [
                    0.54332303,
                    0.09334194,
                    0.6025287
                ],
                "xyz": [
                    3.6264254731379935,
                    1.8691007591371234,
                    5.879056578878404
                ],
                "label": "O",
                "properties": {}
            }
        ]
    },
    "spacegroup": {
        "source": "spglib",
        "symbol": "P-1",
        "number": 2,
        "point_group": "-1",
        "crystal_system": "triclinic",
        "hall": "-P 1"
    },
    "dielectric": {
        "epsilon_ionic": [
            [
                43.01516315,
                -0.51834912,
                -5.55882997
            ],
            [
                -0.51834912,
                46.23422335,
                -0.07732457
            ],
            [
                -5.55882997,
                -0.07732457,
                20.69643523
            ]
        ],
        "epsilon_ionic_avg": 36.64860724333334,
        "epsilon_ionic_eig": [
            19.387160207602406,
            44.20624115206531,
            46.35242037033228
        ],
        "epsilon_electronic": [
            [
                6.36730552,
                0.00015649,
                -0.10652846
            ],
            [
                0.00015417,
                6.20974028,
                -0.00342632
            ],
            [
                -0.1065294,
                -0.00342148,
                6.08092176
            ]
        ],
        "epsilon_electronic_avg": 6.219322520000002,
        "epsilon_electronic_eig": [
            6.402593611703148,
            6.045579000491228,
            6.209794947805631
        ]
    },
    "phonon": {
        "lowest_freq": -0.03681327173256241,
        "frequency": [
            -0.03681327173256241,
            -0.03148969338144288,
            -0.02370642879359655,
            1.3634019201152607,
            1.5070201494690407,
            1.6325501135431142,
            1.7103256368183821,
            1.7196647406932493,
            1.8811971479571128,
            1.9176841333905,
            2.021228557559826,
            2.164420663112787,
            2.2428548804404334,
            2.41672582748897,
            2.4187141183906373,
            2.5202147664103154,
            2.6067722312755612,
            2.755371109571896,
            2.7687379577796785,
            2.832820806291572,
            2.9977781238768633,
            3.1618444969013813,
            3.5320117192242217,
            3.734403460100168,
            3.7396456743864097,
            3.8039674934254584,
            3.9592517835474648,
            3.975724927438222,
            4.136603152932814,
            4.20682369190147,
            4.34648362209506,
            4.386961611229069,
            4.467688699784042,
            4.763192579520433,
            4.774988001327094,
            4.860435767339279,
            5.095017793339695,
            5.195784118847138,
            5.489742080385025,
            5.697744160847966,
            5.92983309694579,
            6.0936712550422545,
            6.258215937713141,
            6.57552188864385,
            6.811216509720957,
            6.870335429310455,
            6.995122683159313,
            7.136290546298123,
            7.299772325974502,
            7.403389312599019,
            7.440228789006235,
            7.619600974050826,
            7.796592312298472,
            7.9584075696021115,
            8.267478867939838,
            8.447740251646847,
            8.495590276093784,
            8.625936003897689,
            8.652513494348174,
            8.886156088647601,
            8.94184502946048,
            9.14532659167406,
            9.425882129144854,
            9.442589778850557,
            9.68382235887922,
            9.785078380574943,
            10.147669318343985,
            10.46413898652586,
            10.537979481250566,
            10.807356806251175,
            10.827697037055552,
            11.039566906197399,
            11.298108247629742,
            11.298529814054646,
            11.764461238352153,
            11.910018286322158,
            12.50300804912099,
            12.673348788907568,
            12.973592064839229,
            13.40435164388542,
            13.716377286042647,
            13.746201109771928,
            14.296214033617343,
            14.816772748706953,
            15.062767920847683,
            15.225471110152437,
            15.322536484739137,
            15.469146775582477,
            15.989583010625994,
            17.147896244671063,
            17.206081356220622,
            17.506848176617446,
            17.865458044625164,
            18.36482852523257,
            18.430065580891913,
            18.840959038624348,
            19.17679863962926,
            19.199292747210283,
            20.950384810861163,
            24.23517002846936,
            25.174065200490137,
            26.04752332212937
        ]
    },
    "born_effective_charge": {
        "avg_abs_trace": 3.989789411764706,
        "tensors": [
            [
                [
                    7.82959,
                    -0.63484,
                    0.23366
                ],
                [
                    -0.66429,
                    7.56629,
                    0.44581
                ],
                [
                    -0.14533,
                    -0.20703,
                    8.20412
                ]
            ],
            [
                [
                    7.82958,
                    -0.63489,
                    0.23362
                ],
                [
                    -0.66433,
                    7.56626,
                    0.44578
                ],
                [
                    -0.1454,
                    -0.20708,
                    8.20434
                ]
            ],
            [
                [
                    7.99418,
                    0.61253,
                    0.29318
                ],
                [
                    0.66383,
                    7.5018,
                    -0.43314
                ],
                [
                    -0.18627,
                    0.19542,
                    8.39422
                ]
            ],
            [
                [
                    7.99402,
                    0.61255,
                    0.29304
                ],
                [
                    0.66386,
                    7.50181,
                    -0.43312
                ],
                [
                    -0.18611,
                    0.1952,
                    8.39401
                ]
            ],
            [
                [
                    4.72387,
                    0.07703,
                    -0.39412
                ],
                [
                    0.08465,
                    5.1,
                    0.20826
                ],
                [
                    -0.14771,
                    0.17021,
                    3.82641
                ]
            ],
            [
                [
                    4.72377,
                    0.07698,
                    -0.39414
                ],
                [
                    0.0846,
                    5.09993,
                    0.20834
                ],
                [
                    -0.14773,
                    0.1701,
                    3.8266
                ]
            ],
            [
                [
                    4.929,
                    -0.07412,
                    0.12522
                ],
                [
                    -0.0894,
                    4.93993,
                    -0.23815
                ],
                [
                    0.31512,
                    -0.14807,
                    4.07418
                ]
            ],
            [
                [
                    4.92893,
                    -0.07421,
                    0.12519
                ],
                [
                    -0.08932,
                    4.93995,
                    -0.23807
                ],
                [
                    0.31516,
                    -0.14827,
                    4.07426
                ]
            ],
            [
                [
                    4.71589,
                    0.03722,
                    -0.73183
                ],
                [
                    0.01905,
                    5.36205,
                    0.01025
                ],
                [
                    -0.68722,
                    -0.00577,
                    3.36745
                ]
            ],
            [
                [
                    4.71589,
                    0.03725,
                    -0.73205
                ],
                [
                    0.01907,
                    5.36202,
                    0.01014
                ],
                [
                    -0.68707,
                    -0.00592,
                    3.36684
                ]
            ],
            [
                [
                    4.81536,
                    -0.04068,
                    -0.48417
                ],
                [
                    -0.02118,
                    4.79899,
                    -0.01882
                ],
                [
                    -0.37728,
                    -0.02716,
                    3.59677
                ]
            ],
            [
                [
                    4.81532,
                    -0.04061,
                    -0.48427
                ],
                [
                    -0.02121,
                    4.79898,
                    -0.0189
                ],
                [
                    -0.37734,
                    -0.02699,
                    3.59664
                ]
            ],
            [
                [
                    -4.0853,
                    -0.66569,
                    0.09449
                ],
                [
                    -0.8908,
                    -2.67508,
                    0.18198
                ],
                [
                    -0.41422,
                    0.13512,
                    -2.56422
                ]
            ],
            [
                [
                    -4.08523,
                    -0.66572,
                    0.09452
                ],
                [
                    -0.89082,
                    -2.6752,
                    0.18201
                ],
                [
                    -0.41409,
                    0.135,
                    -2.56445
                ]
            ],
            [
                [
                    -4.86103,
                    -0.7736,
                    -0.39653
                ],
                [
                    -0.79227,
                    -3.076,
                    -0.18192
                ],
                [
                    0.19667,
                    -0.02087,
                    -1.29364
                ]
            ],
            [
                [
                    -4.86099,
                    -0.77347,
                    -0.39657
                ],
                [
                    -0.79227,
                    -3.07602,
                    -0.18198
                ],
                [
                    0.19667,
                    -0.02082,
                    -1.29375
                ]
            ],
            [
                [
                    -4.84265,
                    0.80131,
                    -0.50199
                ],
                [
                    0.79046,
                    -3.03279,
                    0.2012
                ],
                [
                    0.09283,
                    0.05994,
                    -1.41391
                ]
            ],
            [
                [
                    -4.84262,
                    0.80124,
                    -0.50201
                ],
                [
                    0.79042,
                    -3.03285,
                    0.20121
                ],
                [
                    0.09249,
                    0.05944,
                    -1.41386
                ]
            ],
            [
                [
                    -2.56267,
                    0.13638,
                    0.42847
                ],
                [
                    0.24672,
                    -2.90808,
                    -0.27807
                ],
                [
                    0.35947,
                    -0.32254,
                    -3.76515
                ]
            ],
            [
                [
                    -2.56274,
                    0.13647,
                    0.42852
                ],
                [
                    0.24667,
                    -2.90794,
                    -0.27804
                ],
                [
                    0.35945,
                    -0.32203,
                    -3.76518
                ]
            ],
            [
                [
                    -4.15672,
                    0.65268,
                    -0.01262
                ],
                [
                    0.8598,
                    -2.68886,
                    -0.16363
                ],
                [
                    -0.46913,
                    -0.09969,
                    -2.55249
                ]
            ],
            [
                [
                    -4.15655,
                    0.65265,
                    -0.0126
                ],
                [
                    0.8599,
                    -2.68891,
                    -0.16362
                ],
                [
                    -0.4687,
                    -0.10005,
                    -2.55247
                ]
            ],
            [
                [
                    -2.72748,
                    -0.10389,
                    0.27013
                ],
                [
                    -0.21319,
                    -2.61992,
                    0.20268
                ],
                [
                    0.17283,
                    0.22607,
                    -3.5322
                ]
            ],
            [
                [
                    -2.72753,
                    -0.10378,
                    0.27011
                ],
                [
                    -0.21307,
                    -2.61993,
                    0.20275
                ],
                [
                    0.17283,
                    0.22626,
                    -3.5328
                ]
            ],
            [
                [
                    -2.43553,
                    -0.00965,
                    0.02735
                ],
                [
                    -0.02199,
                    -6.02204,
                    0.00897
                ],
                [
                    0.0225,
                    0.05291,
                    -1.36233
                ]
            ],
            [
                [
                    -2.43547,
                    -0.00966,
                    0.02732
                ],
                [
                    -0.02197,
                    -6.02197,
                    0.00894
                ],
                [
                    0.02246,
                    0.05317,
                    -1.36249
                ]
            ],
            [
                [
                    -1.68401,
                    0.0108,
                    1.07787
                ],
                [
                    0.01786,
                    -1.34512,
                    -0.01002
                ],
                [
                    1.57918,
                    0.02103,
                    -7.22638
                ]
            ],
            [
                [
                    -1.684,
                    0.01073,
                    1.07777
                ],
                [
                    0.01789,
                    -1.34515,
                    -0.00991
                ],
                [
                    1.57936,
                    0.02064,
                    -7.22645
                ]
            ],
            [
                [
                    -2.21556,
                    -0.05059,
                    0.23856
                ],
                [
                    -0.13513,
                    -2.85423,
                    0.14543
                ],
                [
                    -0.16103,
                    0.06084,
                    -3.04673
                ]
            ],
            [
                [
                    -2.21557,
                    -0.0505,
                    0.23855
                ],
                [
                    -0.13515,
                    -2.85417,
                    0.14543
                ],
                [
                    -0.16108,
                    0.06089,
                    -3.04682
                ]
            ],
            [
                [
                    -2.6136,
                    0.00438,
                    0.03299
                ],
                [
                    0.01398,
                    -5.69384,
                    -0.0106
                ],
                [
                    0.24984,
                    -0.03781,
                    -1.65279
                ]
            ],
            [
                [
                    -2.61354,
                    0.00436,
                    0.03298
                ],
                [
                    0.01402,
                    -5.69392,
                    -0.01068
                ],
                [
                    0.25023,
                    -0.03813,
                    -1.65301
                ]
            ],
            [
                [
                    -2.82327,
                    0.02074,
                    -0.30022
                ],
                [
                    0.13181,
                    -2.35294,
                    -0.07022
                ],
                [
                    -0.40047,
                    -0.05171,
                    -3.05211
                ]
            ],
            [
                [
                    -2.82331,
                    0.02063,
                    -0.30039
                ],
                [
                    0.1318,
                    -2.35307,
                    -0.07028
                ],
                [
                    -0.40088,
                    -0.05232,
                    -3.05264
                ]
            ]
        ]
    },
    "band_gap": 2.7671,
    "is_direct": false,
    "formula": "Ta2Bi4O11"
}