{
    "mp_id": "mp-21892",
    "nelements": 3,
    "nsites": 14,
    "elements": [
        "Al",
        "O",
        "Pb"
    ],
    "structure": {
        "@module": "pymatgen.core.structure",
        "@class": "Structure",
        "charge": null,
        "lattice": {
            "matrix": [
                [
                    8.44481574,
                    0.0,
                    0.0
                ],
                [
                    0.0,
                    4.59402465,
                    2.54386261
                ],
                [
                    0.0,
                    -4.59402465,
                    2.54386261
                ]
            ],
            "a": 8.44481574,
            "b": 5.251314070150788,
            "c": 5.251314070150788,
            "alpha": 122.05051623275494,
            "beta": 90.0,
            "gamma": 90.0,
            "volume": 197.38181895851727
        },
        "sites": [
            {
                "species": [
                    {
                        "element": "Al",
                        "occu": 1
                    }
                ],
                "abc": [
                    0.55389575,
                    0.35936882,
                    0.70434328
                ],
                "xyz": [
                    4.677547547919104,
                    -1.5848211728604389,
                    2.705937438994581
                ],
                "label": "Al",
                "properties": {}
            },
            {
                "species": [
                    {
                        "element": "Al",
                        "occu": 1
                    }
                ],
                "abc": [
                    0.44610425,
                    0.70434328,
                    0.35936882
                ],
                "xyz": [
                    3.7672681920808944,
                    1.5848211728604389,
                    2.705937438994581
                ],
                "label": "Al",
                "properties": {}
            },
            {
                "species": [
                    {
                        "element": "Al",
                        "occu": 1
                    }
                ],
                "abc": [
                    0.94610425,
                    0.35936882,
                    0.70434328
                ],
                "xyz": [
                    7.989676062080894,
                    -1.5848211728604389,
                    2.705937438994581
                ],
                "label": "Al",
                "properties": {}
            },
            {
                "species": [
                    {
                        "element": "Al",
                        "occu": 1
                    }
                ],
                "abc": [
                    0.05389575,
                    0.70434328,
                    0.35936882
                ],
                "xyz": [
                    0.455139677919105,
                    1.5848211728604389,
                    2.705937438994581
                ],
                "label": "Al",
                "properties": {}
            },
            {
                "species": [
                    {
                        "element": "Pb",
                        "occu": 1
                    }
                ],
                "abc": [
                    0.75,
                    0.96980663,
                    0.0227691
                ],
                "xyz": [
                    6.333611804999999,
                    4.3507137572951144,
                    2.5249762871404555
                ],
                "label": "Pb",
                "properties": {}
            },
            {
                "species": [
                    {
                        "element": "Pb",
                        "occu": 1
                    }
                ],
                "abc": [
                    0.25,
                    0.0227691,
                    0.96980663
                ],
                "xyz": [
                    2.111203935,
                    -4.3507137572951144,
                    2.5249762871404555
                ],
                "label": "Pb",
                "properties": {}
            },
            {
                "species": [
                    {
                        "element": "O",
                        "occu": 1
                    }
                ],
                "abc": [
                    0.75,
                    0.46277895,
                    0.84037542
                ],
                "xyz": [
                    6.333611804999999,
                    -1.734687490932985,
                    3.315045676901106
                ],
                "label": "O",
                "properties": {}
            },
            {
                "species": [
                    {
                        "element": "O",
                        "occu": 1
                    }
                ],
                "abc": [
                    0.25,
                    0.84037542,
                    0.46277895
                ],
                "xyz": [
                    2.111203935,
                    1.734687490932985,
                    3.315045676901106
                ],
                "label": "O",
                "properties": {}
            },
            {
                "species": [
                    {
                        "element": "O",
                        "occu": 1
                    }
                ],
                "abc": [
                    0.5,
                    0.65100909,
                    0.65100909
                ],
                "xyz": [
                    4.22240787,
                    0.0,
                    3.3121553656422495
                ],
                "label": "O",
                "properties": {}
            },
            {
                "species": [
                    {
                        "element": "O",
                        "occu": 1
                    }
                ],
                "abc": [
                    0.0,
                    0.65100909,
                    0.65100909
                ],
                "xyz": [
                    0.0,
                    0.0,
                    3.3121553656422495
                ],
                "label": "O",
                "properties": {}
            },
            {
                "species": [
                    {
                        "element": "O",
                        "occu": 1
                    }
                ],
                "abc": [
                    0.55578732,
                    0.998566,
                    0.37384977
                ],
                "xyz": [
                    4.693521508028416,
                    2.8699617598750686,
                    3.4912371626773595
                ],
                "label": "O",
                "properties": {}
            },
            {
                "species": [
                    {
                        "element": "O",
                        "occu": 1
                    }
                ],
                "abc": [
                    0.44421268,
                    0.37384977,
                    0.998566
                ],
                "xyz": [
                    3.751294231971583,
                    -2.8699617598750686,
                    3.4912371626773595
                ],
                "label": "O",
                "properties": {}
            },
            {
                "species": [
                    {
                        "element": "O",
                        "occu": 1
                    }
                ],
                "abc": [
                    0.05578732,
                    0.37384977,
                    0.998566
                ],
                "xyz": [
                    0.47111363802841677,
                    -2.8699617598750686,
                    3.4912371626773595
                ],
                "label": "O",
                "properties": {}
            },
            {
                "species": [
                    {
                        "element": "O",
                        "occu": 1
                    }
                ],
                "abc": [
                    0.94421268,
                    0.998566,
                    0.37384977
                ],
                "xyz": [
                    7.973702101971583,
                    2.8699617598750686,
                    3.4912371626773595
                ],
                "label": "O",
                "properties": {}
            }
        ]
    },
    "spacegroup": {
        "source": "spglib",
        "symbol": "Ama2",
        "number": 40,
        "point_group": "mm2",
        "crystal_system": "orthorhombic",
        "hall": "A 2 -2a"
    },
    "dielectric": {
        "epsilon_ionic": [
            [
                27.1307681,
                0.0,
                1.255e-05
            ],
            [
                0.0,
                10.58976986,
                0.00015763
            ],
            [
                1.255e-05,
                0.00015763,
                5.30537076
            ]
        ],
        "epsilon_ionic_avg": 14.341969573333335,
        "epsilon_ionic_eig": [
            27.130768100007217,
            5.30537075529079,
            10.589769864701996
        ],
        "epsilon_electronic": [
            [
                3.75761726,
                0.0,
                0.0
            ],
            [
                0.0,
                3.6449361,
                0.0
            ],
            [
                0.0,
                0.0,
                3.72236626
            ]
        ],
        "epsilon_electronic_avg": 3.70830654,
        "epsilon_electronic_eig": [
            3.75761726,
            3.6449361,
            3.72236626
        ]
    },
    "phonon": {
        "lowest_freq": -0.03942565812942545,
        "frequency": [
            -0.03942565812942545,
            -0.02565269620816142,
            -0.011719574835780237,
            1.259606736264855,
            1.353645951796824,
            2.4423202189491153,
            2.7815869410319203,
            2.9495976598287674,
            3.3281934237320363,
            4.2012744901010235,
            4.336018916794739,
            4.539585292232422,
            6.100391983290703,
            6.449567216227562,
            8.211627859816314,
            8.294416648597931,
            8.485549674333095,
            8.5616509252824,
            10.235969399207963,
            10.377908397210689,
            10.670548123594873,
            11.029554440809784,
            11.488535702921968,
            11.9533085121249,
            12.607589069799717,
            12.677534720755771,
            13.856182147616517,
            14.09228579999414,
            16.24278027020795,
            16.839398676907194,
            18.279622740806406,
            18.37536568075243,
            19.042423600246405,
            19.968183483915883,
            22.77182036814555,
            23.59599380235564,
            23.702548928732366,
            23.73400135015699,
            24.21105375031325,
            25.825542814681057,
            25.93229347304292,
            25.989437327335448
        ]
    },
    "born_effective_charge": {
        "avg_abs_trace": 2.350867619047619,
        "tensors": [
            [
                [
                    2.42039,
                    -0.05032,
                    0.21214
                ],
                [
                    -0.17687,
                    2.61891,
                    -0.14077
                ],
                [
                    -0.18018,
                    0.22611,
                    2.74162
                ]
            ],
            [
                [
                    2.42039,
                    -0.05032,
                    -0.21213
                ],
                [
                    -0.17682,
                    2.61891,
                    0.14073
                ],
                [
                    0.18018,
                    -0.22611,
                    2.74162
                ]
            ],
            [
                [
                    2.42039,
                    0.05032,
                    -0.21213
                ],
                [
                    0.17687,
                    2.61891,
                    -0.14077
                ],
                [
                    0.18018,
                    0.22611,
                    2.74162
                ]
            ],
            [
                [
                    2.42039,
                    0.05032,
                    0.21214
                ],
                [
                    0.17682,
                    2.61891,
                    0.14073
                ],
                [
                    -0.18018,
                    -0.22611,
                    2.74162
                ]
            ],
            [
                [
                    3.48371,
                    -0.0,
                    1e-05
                ],
                [
                    0.0,
                    2.84562,
                    -0.00597
                ],
                [
                    0.0,
                    0.05687,
                    2.79282
                ]
            ],
            [
                [
                    3.48371,
                    0.0,
                    1e-05
                ],
                [
                    0.0,
                    2.84588,
                    0.00628
                ],
                [
                    -0.0,
                    -0.05687,
                    2.79282
                ]
            ],
            [
                [
                    -2.33532,
                    1e-05,
                    0.0
                ],
                [
                    0.0,
                    -1.93407,
                    -0.65555
                ],
                [
                    -0.0,
                    -0.68074,
                    -2.03554
                ]
            ],
            [
                [
                    -2.33532,
                    -1e-05,
                    0.0
                ],
                [
                    0.0,
                    -1.93431,
                    0.65537
                ],
                [
                    0.0,
                    0.68074,
                    -2.03554
                ]
            ],
            [
                [
                    -2.05665,
                    -0.33651,
                    -1e-05
                ],
                [
                    -0.60629,
                    -2.17522,
                    0.0
                ],
                [
                    0.0,
                    0.0,
                    -1.91602
                ]
            ],
            [
                [
                    -2.05665,
                    0.33651,
                    -1e-05
                ],
                [
                    0.60629,
                    -2.17522,
                    0.0
                ],
                [
                    0.0,
                    0.0,
                    -1.91602
                ]
            ],
            [
                [
                    -1.96627,
                    0.7269,
                    -0.03509
                ],
                [
                    0.59688,
                    -1.98716,
                    0.02446
                ],
                [
                    -0.12903,
                    0.20801,
                    -2.16224
                ]
            ],
            [
                [
                    -1.96626,
                    0.72689,
                    0.03508
                ],
                [
                    0.59674,
                    -1.98699,
                    -0.02448
                ],
                [
                    0.12903,
                    -0.20801,
                    -2.16224
                ]
            ],
            [
                [
                    -1.96627,
                    -0.7269,
                    -0.03509
                ],
                [
                    -0.59674,
                    -1.98699,
                    -0.02448
                ],
                [
                    -0.12903,
                    -0.20801,
                    -2.16224
                ]
            ],
            [
                [
                    -1.96626,
                    -0.72689,
                    0.03508
                ],
                [
                    -0.59688,
                    -1.98716,
                    0.02446
                ],
                [
                    0.12903,
                    0.20801,
                    -2.16224
                ]
            ]
        ]
    },
    "band_gap": 3.9031999999999996,
    "is_direct": true,
    "formula": "Al2PbO4"
}