{
    "mp_id": "mp-28574",
    "nelements": 3,
    "nsites": 16,
    "elements": [
        "K",
        "O",
        "Pb"
    ],
    "structure": {
        "@module": "pymatgen.core.structure",
        "@class": "Structure",
        "charge": null,
        "lattice": {
            "matrix": [
                [
                    6.42391824,
                    -0.00126363,
                    0.00105219
                ],
                [
                    -1.8678543,
                    6.75006203,
                    -0.00095789
                ],
                [
                    -0.51855446,
                    -3.73588446,
                    6.50659442
                ]
            ],
            "a": 6.4239184504529065,
            "b": 7.003728864856881,
            "c": 7.520738153454787,
            "alpha": 117.41825706081015,
            "beta": 93.9399271712594,
            "gamma": 105.47892205564709,
            "volume": 282.11062791970033
        },
        "sites": [
            {
                "species": [
                    {
                        "element": "K",
                        "occu": 1
                    }
                ],
                "abc": [
                    0.47186241,
                    0.24967784,
                    0.99538004
                ],
                "xyz": [
                    2.0486849561736675,
                    -2.0338801752109115,
                    6.476791539046397
                ],
                "label": "K",
                "properties": {}
            },
            {
                "species": [
                    {
                        "element": "K",
                        "occu": 1
                    }
                ],
                "abc": [
                    0.02475199,
                    0.75047319,
                    0.74941188
                ],
                "xyz": [
                    -1.6313806876899042,
                    2.265993110363467,
                    4.8754263297220986
                ],
                "label": "K",
                "properties": {}
            },
            {
                "species": [
                    {
                        "element": "K",
                        "occu": 1
                    }
                ],
                "abc": [
                    0.52813759,
                    0.75032216,
                    0.00461996
                ],
                "xyz": [
                    1.988824523826332,
                    5.046794115210911,
                    0.0298971809536029
                ],
                "label": "K",
                "properties": {}
            },
            {
                "species": [
                    {
                        "element": "K",
                        "occu": 1
                    }
                ],
                "abc": [
                    0.97524801,
                    0.24952681,
                    0.25058812
                ],
                "xyz": [
                    5.668890167689904,
                    0.7469208296365326,
                    1.6312623902779015
                ],
                "label": "K",
                "properties": {}
            },
            {
                "species": [
                    {
                        "element": "Pb",
                        "occu": 1
                    }
                ],
                "abc": [
                    0.94728163,
                    0.23493381,
                    0.74355998
                ],
                "xyz": [
                    5.260861270243537,
                    -1.1932333974017935,
                    4.83881489631432
                ],
                "label": "Pb",
                "properties": {}
            },
            {
                "species": [
                    {
                        "element": "Pb",
                        "occu": 1
                    }
                ],
                "abc": [
                    0.05271837,
                    0.76506619,
                    0.25644002
                ],
                "xyz": [
                    -1.2233517902435374,
                    4.206147337401793,
                    1.6678738236856794
                ],
                "label": "Pb",
                "properties": {}
            },
            {
                "species": [
                    {
                        "element": "Pb",
                        "occu": 1
                    }
                ],
                "abc": [
                    0.50689885,
                    0.74167309,
                    0.50044298
                ],
                "xyz": [
                    1.6114325587445464,
                    3.136101678789856,
                    3.256002413860973
                ],
                "label": "Pb",
                "properties": {}
            },
            {
                "species": [
                    {
                        "element": "Pb",
                        "occu": 1
                    }
                ],
                "abc": [
                    0.49310115,
                    0.25832691,
                    0.49955702
                ],
                "xyz": [
                    2.4260769212554534,
                    -0.12318773878985634,
                    3.250686306139027
                ],
                "label": "Pb",
                "properties": {}
            },
            {
                "species": [
                    {
                        "element": "O",
                        "occu": 1
                    }
                ],
                "abc": [
                    0.69088277,
                    0.49364892,
                    0.40155943
                ],
                "xyz": [
                    3.3078797366108104,
                    1.8311081765443944,
                    2.613038425114168
                ],
                "label": "O",
                "properties": {}
            },
            {
                "species": [
                    {
                        "element": "O",
                        "occu": 1
                    }
                ],
                "abc": [
                    0.30911723,
                    0.50635108,
                    0.59844057
                ],
                "xyz": [
                    0.7296297433891892,
                    1.1818057634556052,
                    3.8936502948858314
                ],
                "label": "O",
                "properties": {}
            },
            {
                "species": [
                    {
                        "element": "O",
                        "occu": 1
                    }
                ],
                "abc": [
                    0.27290865,
                    0.02386493,
                    0.19385578
                ],
                "xyz": [
                    1.6080418631532978,
                    -0.5634778936989704,
                    1.2616052282073935
                ],
                "label": "O",
                "properties": {}
            },
            {
                "species": [
                    {
                        "element": "O",
                        "occu": 1
                    }
                ],
                "abc": [
                    0.72709135,
                    0.97613507,
                    0.80614422
                ],
                "xyz": [
                    2.4294676168467015,
                    3.576391833698971,
                    5.245083491792606
                ],
                "label": "O",
                "properties": {}
            },
            {
                "species": [
                    {
                        "element": "O",
                        "occu": 1
                    }
                ],
                "abc": [
                    0.28608509,
                    0.97804325,
                    0.56862516
                ],
                "xyz": [
                    -0.28391817504164735,
                    4.4771732010115075,
                    3.6991774511497115
                ],
                "label": "O",
                "properties": {}
            },
            {
                "species": [
                    {
                        "element": "O",
                        "occu": 1
                    }
                ],
                "abc": [
                    0.71391491,
                    0.02195675,
                    0.43137484
                ],
                "xyz": [
                    4.321427655041647,
                    -1.464259261011507,
                    2.807511268850288
                ],
                "label": "O",
                "properties": {}
            },
            {
                "species": [
                    {
                        "element": "O",
                        "occu": 1
                    }
                ],
                "abc": [
                    0.7197818,
                    0.43718615,
                    0.7987207
                ],
                "xyz": [
                    3.3930392223827655,
                    -0.03380415772937129,
                    5.197290220729412
                ],
                "label": "O",
                "properties": {}
            },
            {
                "species": [
                    {
                        "element": "O",
                        "occu": 1
                    }
                ],
                "abc": [
                    0.2802182,
                    0.56281385,
                    0.2012793
                ],
                "xyz": [
                    0.6444702576172348,
                    3.046718097729371,
                    1.3093984992705874
                ],
                "label": "O",
                "properties": {}
            }
        ]
    },
    "spacegroup": {
        "source": "spglib",
        "symbol": "P-1",
        "number": 2,
        "point_group": "-1",
        "crystal_system": "triclinic",
        "hall": "-P 1"
    },
    "dielectric": {
        "epsilon_ionic": [
            [
                6.02468459,
                -0.68543559,
                0.55265915
            ],
            [
                -0.68543559,
                7.94097968,
                0.08882197
            ],
            [
                0.55265915,
                0.08882197,
                4.21281785
            ]
        ],
        "epsilon_ionic_avg": 6.05949404,
        "epsilon_ionic_eig": [
            8.162769658929152,
            5.977919945252093,
            4.037792515818753
        ],
        "epsilon_electronic": [
            [
                5.16992038,
                0.12879167,
                0.42192876
            ],
            [
                0.1287901,
                5.23964186,
                0.18081938
            ],
            [
                0.42192791,
                0.18081934,
                4.55029309
            ]
        ],
        "epsilon_electronic_avg": 4.986618443333335,
        "epsilon_electronic_eig": [
            4.324541907857077,
            5.52392687476032,
            5.1113865473826126
        ]
    },
    "phonon": {
        "lowest_freq": -0.0345893359249566,
        "frequency": [
            -0.0345893359249566,
            -0.024626150600889102,
            -0.012547715240163144,
            1.7832899368393635,
            1.9677685479806297,
            1.9950935568065145,
            2.404834819571192,
            2.5584173701417194,
            2.698691738037344,
            2.9353883144518944,
            3.247884642585812,
            3.345271105070216,
            3.5035434837024377,
            3.717175928725657,
            3.8665018241833313,
            3.9150942394361326,
            3.918897538748353,
            4.1337342252078555,
            4.463329900520987,
            4.6895171997233,
            5.013076449751739,
            5.232941532564639,
            5.562124094634793,
            5.600722985955824,
            6.867455900867979,
            6.969552304017341,
            7.227063381477145,
            7.586051024415137,
            7.697448824497283,
            7.8770273856399955,
            8.21328642653843,
            8.675391463666132,
            9.147148335448614,
            9.77090070829209,
            9.914632277235292,
            10.566878170719383,
            11.150668748435445,
            11.756568592325864,
            11.86334026152011,
            12.167832816726257,
            12.302350361205596,
            12.439103265640696,
            12.776804097095004,
            13.169431546531884,
            13.30294225313109,
            13.673391580129307,
            13.863887812153859,
            14.479587715072972
        ]
    },
    "born_effective_charge": {
        "avg_abs_trace": 2.1319906250000003,
        "tensors": [
            [
                [
                    1.15107,
                    0.01174,
                    -0.18464
                ],
                [
                    0.00703,
                    1.05784,
                    -0.05173
                ],
                [
                    -0.23802,
                    -0.06894,
                    1.62247
                ]
            ],
            [
                [
                    1.31138,
                    -0.01867,
                    0.06101
                ],
                [
                    0.00824,
                    1.29029,
                    -0.06212
                ],
                [
                    0.05146,
                    -0.05635,
                    1.1368
                ]
            ],
            [
                [
                    1.15107,
                    0.01159,
                    -0.18468
                ],
                [
                    0.00708,
                    1.05782,
                    -0.05174
                ],
                [
                    -0.238,
                    -0.06898,
                    1.62248
                ]
            ],
            [
                [
                    1.31136,
                    -0.0186,
                    0.06102
                ],
                [
                    0.00822,
                    1.29028,
                    -0.06212
                ],
                [
                    0.0514,
                    -0.05642,
                    1.13668
                ]
            ],
            [
                [
                    2.73182,
                    0.1929,
                    0.26988
                ],
                [
                    0.18294,
                    2.37544,
                    0.2715
                ],
                [
                    0.41416,
                    0.24093,
                    1.72716
                ]
            ],
            [
                [
                    2.73169,
                    0.19297,
                    0.26927
                ],
                [
                    0.18282,
                    2.37528,
                    0.27093
                ],
                [
                    0.41463,
                    0.24167,
                    1.72685
                ]
            ],
            [
                [
                    3.50259,
                    -0.44753,
                    0.82622
                ],
                [
                    -0.42455,
                    4.99735,
                    0.25035
                ],
                [
                    0.61871,
                    0.17972,
                    2.68013
                ]
            ],
            [
                [
                    3.50238,
                    -0.44758,
                    0.82608
                ],
                [
                    -0.42472,
                    4.99725,
                    0.25013
                ],
                [
                    0.61861,
                    0.18036,
                    2.68028
                ]
            ],
            [
                [
                    -2.21598,
                    0.27886,
                    0.09118
                ],
                [
                    0.01684,
                    -3.08683,
                    0.0832
                ],
                [
                    0.14056,
                    0.23157,
                    -1.383
                ]
            ],
            [
                [
                    -2.21592,
                    0.27852,
                    0.09095
                ],
                [
                    0.01667,
                    -3.08711,
                    0.08329
                ],
                [
                    0.14102,
                    0.23092,
                    -1.38283
                ]
            ],
            [
                [
                    -1.74465,
                    -0.42465,
                    -0.47618
                ],
                [
                    -0.8289,
                    -2.67297,
                    -0.37452
                ],
                [
                    -0.17219,
                    0.0712,
                    -1.75487
                ]
            ],
            [
                [
                    -1.7448,
                    -0.4247,
                    -0.47649
                ],
                [
                    -0.82876,
                    -2.6728,
                    -0.37445
                ],
                [
                    -0.17282,
                    0.07054,
                    -1.7553
                ]
            ],
            [
                [
                    -2.31798,
                    -0.00964,
                    -0.14648
                ],
                [
                    0.18442,
                    -2.17396,
                    -0.18573
                ],
                [
                    -0.51463,
                    -0.42085,
                    -2.02095
                ]
            ],
            [
                [
                    -2.31747,
                    -0.00946,
                    -0.14663
                ],
                [
                    0.18493,
                    -2.17411,
                    -0.18551
                ],
                [
                    -0.51524,
                    -0.42019,
                    -2.02082
                ]
            ],
            [
                [
                    -2.41837,
                    0.41721,
                    -0.44037
                ],
                [
                    0.85375,
                    -1.7867,
                    0.06942
                ],
                [
                    -0.30005,
                    -0.17785,
                    -2.00802
                ]
            ],
            [
                [
                    -2.4182,
                    0.41704,
                    -0.44014
                ],
                [
                    0.854,
                    -1.78707,
                    0.06909
                ],
                [
                    -0.2996,
                    -0.17734,
                    -2.00708
                ]
            ]
        ]
    },
    "band_gap": 1.4252000000000002,
    "is_direct": false,
    "formula": "KPbO2"
}