{
    "mp_id": "mp-28380",
    "nelements": 3,
    "nsites": 28,
    "elements": [
        "O",
        "Rb",
        "Tl"
    ],
    "structure": {
        "@module": "pymatgen.core.structure",
        "@class": "Structure",
        "charge": null,
        "lattice": {
            "matrix": [
                [
                    7.7618272,
                    0.0,
                    0.00260766
                ],
                [
                    0.0,
                    7.11167955,
                    0.0
                ],
                [
                    -0.72241892,
                    0.0,
                    11.4594576
                ]
            ],
            "a": 7.7618276380341324,
            "b": 7.11167955,
            "c": 11.482206128709402,
            "alpha": 90.0,
            "beta": 93.5879768764516,
            "gamma": 90.0,
            "volume": 632.571191098134
        },
        "sites": [
            {
                "species": [
                    {
                        "element": "Rb",
                        "occu": 1
                    }
                ],
                "abc": [
                    0.05974082,
                    0.13165604,
                    0.65645771
                ],
                "xyz": [
                    -0.010539548257569142,
                    0.936295567301982,
                    7.522805077684777
                ],
                "label": "Rb",
                "properties": {}
            },
            {
                "species": [
                    {
                        "element": "Rb",
                        "occu": 1
                    }
                ],
                "abc": [
                    0.05974082,
                    0.36834396,
                    0.15645771
                ],
                "xyz": [
                    0.35066991174243084,
                    2.619544207698018,
                    1.7930762776847773
                ],
                "label": "Rb",
                "properties": {}
            },
            {
                "species": [
                    {
                        "element": "Rb",
                        "occu": 1
                    }
                ],
                "abc": [
                    0.64197007,
                    0.81940408,
                    0.57591468
                ],
                "xyz": [
                    4.566809089774158,
                    5.827339238922564,
                    6.601343896350305
                ],
                "label": "Rb",
                "properties": {}
            },
            {
                "species": [
                    {
                        "element": "Rb",
                        "occu": 1
                    }
                ],
                "abc": [
                    0.37022442,
                    0.70157656,
                    0.31074249
                ],
                "xyz": [
                    2.649131719236313,
                    4.989387674511348,
                    3.5619058080844814
                ],
                "label": "Rb",
                "properties": {}
            },
            {
                "species": [
                    {
                        "element": "Rb",
                        "occu": 1
                    }
                ],
                "abc": [
                    0.62977558,
                    0.20157656,
                    0.18925751
                ],
                "xyz": [
                    4.751486020763687,
                    1.433547899511348,
                    2.170430651915519
                ],
                "label": "Rb",
                "properties": {}
            },
            {
                "species": [
                    {
                        "element": "Rb",
                        "occu": 1
                    }
                ],
                "abc": [
                    0.62977558,
                    0.29842344,
                    0.68925751
                ],
                "xyz": [
                    4.390276560763687,
                    2.122291875488652,
                    7.90015945191552
                ],
                "label": "Rb",
                "properties": {}
            },
            {
                "species": [
                    {
                        "element": "Rb",
                        "occu": 1
                    }
                ],
                "abc": [
                    0.37022442,
                    0.79842344,
                    0.81074249
                ],
                "xyz": [
                    2.2879222592363133,
                    5.678131650488652,
                    9.291634608084482
                ],
                "label": "Rb",
                "properties": {}
            },
            {
                "species": [
                    {
                        "element": "Rb",
                        "occu": 1
                    }
                ],
                "abc": [
                    0.64197007,
                    0.68059592,
                    0.07591468
                ],
                "xyz": [
                    4.928018549774158,
                    4.840180086077436,
                    0.8716150963503042
                ],
                "label": "Rb",
                "properties": {}
            },
            {
                "species": [
                    {
                        "element": "Rb",
                        "occu": 1
                    }
                ],
                "abc": [
                    0.35802993,
                    0.18059592,
                    0.42408532
                ],
                "xyz": [
                    2.472599190225842,
                    1.2843403110774358,
                    4.860721363649696
                ],
                "label": "Rb",
                "properties": {}
            },
            {
                "species": [
                    {
                        "element": "Rb",
                        "occu": 1
                    }
                ],
                "abc": [
                    0.35802993,
                    0.31940408,
                    0.92408532
                ],
                "xyz": [
                    2.1113897302258415,
                    2.271499463922564,
                    10.590450163649695
                ],
                "label": "Rb",
                "properties": {}
            },
            {
                "species": [
                    {
                        "element": "Rb",
                        "occu": 1
                    }
                ],
                "abc": [
                    0.94025918,
                    0.63165604,
                    0.84354229
                ],
                "xyz": [
                    6.688738368257569,
                    4.492135342301982,
                    9.668988982315224
                ],
                "label": "Rb",
                "properties": {}
            },
            {
                "species": [
                    {
                        "element": "Rb",
                        "occu": 1
                    }
                ],
                "abc": [
                    0.94025918,
                    0.86834396,
                    0.34354229
                ],
                "xyz": [
                    7.04994782825757,
                    6.175383982698018,
                    3.939260182315223
                ],
                "label": "Rb",
                "properties": {}
            },
            {
                "species": [
                    {
                        "element": "Tl",
                        "occu": 1
                    }
                ],
                "abc": [
                    0.16571675,
                    0.59523434,
                    0.57029128
                ],
                "xyz": [
                    0.8742755670625824,
                    4.2331158832357465,
                    6.5356608757500325
                ],
                "label": "Tl",
                "properties": {}
            },
            {
                "species": [
                    {
                        "element": "Tl",
                        "occu": 1
                    }
                ],
                "abc": [
                    0.83428325,
                    0.40476566,
                    0.42970872
                ],
                "xyz": [
                    6.165132712937418,
                    2.8785636667642533,
                    4.926404384249967
                ],
                "label": "Tl",
                "properties": {}
            },
            {
                "species": [
                    {
                        "element": "Tl",
                        "occu": 1
                    }
                ],
                "abc": [
                    0.16571675,
                    0.90476566,
                    0.07029128
                ],
                "xyz": [
                    1.2354850270625823,
                    6.434403441764253,
                    0.805932075750033
                ],
                "label": "Tl",
                "properties": {}
            },
            {
                "species": [
                    {
                        "element": "Tl",
                        "occu": 1
                    }
                ],
                "abc": [
                    0.83428325,
                    0.09523434,
                    0.92970872
                ],
                "xyz": [
                    5.803923252937418,
                    0.677276108235747,
                    10.656133184249967
                ],
                "label": "Tl",
                "properties": {}
            },
            {
                "species": [
                    {
                        "element": "O",
                        "occu": 1
                    }
                ],
                "abc": [
                    0.30807907,
                    0.06568371,
                    0.1983127
                ],
                "xyz": [
                    2.24799165872042,
                    0.4671214971751305,
                    2.2733593426591963
                ],
                "label": "O",
                "properties": {}
            },
            {
                "species": [
                    {
                        "element": "O",
                        "occu": 1
                    }
                ],
                "abc": [
                    0.11053549,
                    0.03599653,
                    0.8944651
                ],
                "xyz": [
                    0.21177886132763601,
                    0.2559957862719615,
                    10.250373127105615
                ],
                "label": "O",
                "properties": {}
            },
            {
                "species": [
                    {
                        "element": "O",
                        "occu": 1
                    }
                ],
                "abc": [
                    0.88946451,
                    0.53599653,
                    0.6055349
                ],
                "xyz": [
                    6.466419958672364,
                    3.8118355612719617,
                    6.9414209328943866
                ],
                "label": "O",
                "properties": {}
            },
            {
                "species": [
                    {
                        "element": "O",
                        "occu": 1
                    }
                ],
                "abc": [
                    0.26099792,
                    0.63119916,
                    0.03822593
                ],
                "xyz": [
                    1.9982056195328282,
                    4.488886158149178,
                    0.4387290178916352
                ],
                "label": "O",
                "properties": {}
            },
            {
                "species": [
                    {
                        "element": "O",
                        "occu": 1
                    }
                ],
                "abc": [
                    0.73900208,
                    0.13119916,
                    0.46177407
                ],
                "xyz": [
                    5.402412120467171,
                    0.9330463831491781,
                    5.293607442108365
                ],
                "label": "O",
                "properties": {}
            },
            {
                "species": [
                    {
                        "element": "O",
                        "occu": 1
                    }
                ],
                "abc": [
                    0.73900208,
                    0.36880084,
                    0.96177407
                ],
                "xyz": [
                    5.041202660467171,
                    2.622793391850822,
                    11.023336242108366
                ],
                "label": "O",
                "properties": {}
            },
            {
                "species": [
                    {
                        "element": "O",
                        "occu": 1
                    }
                ],
                "abc": [
                    0.26099792,
                    0.86880084,
                    0.53822593
                ],
                "xyz": [
                    1.6369961595328282,
                    6.178633166850822,
                    6.168457817891635
                ],
                "label": "O",
                "properties": {}
            },
            {
                "species": [
                    {
                        "element": "O",
                        "occu": 1
                    }
                ],
                "abc": [
                    0.30807907,
                    0.43431629,
                    0.6983127
                ],
                "xyz": [
                    1.8867821987204199,
                    3.0887182778248694,
                    8.003088142659196
                ],
                "label": "O",
                "properties": {}
            },
            {
                "species": [
                    {
                        "element": "O",
                        "occu": 1
                    }
                ],
                "abc": [
                    0.88946451,
                    0.96400347,
                    0.1055349
                ],
                "xyz": [
                    6.827629418672364,
                    6.855683763728038,
                    1.2116921328943866
                ],
                "label": "O",
                "properties": {}
            },
            {
                "species": [
                    {
                        "element": "O",
                        "occu": 1
                    }
                ],
                "abc": [
                    0.69192093,
                    0.93431629,
                    0.8016873
                ],
                "xyz": [
                    4.79141662127958,
                    6.64455805282487,
                    9.188705917340805
                ],
                "label": "O",
                "properties": {}
            },
            {
                "species": [
                    {
                        "element": "O",
                        "occu": 1
                    }
                ],
                "abc": [
                    0.69192093,
                    0.56568371,
                    0.3016873
                ],
                "xyz": [
                    5.152626081279579,
                    4.02296127217513,
                    3.4589771173408037
                ],
                "label": "O",
                "properties": {}
            },
            {
                "species": [
                    {
                        "element": "O",
                        "occu": 1
                    }
                ],
                "abc": [
                    0.11053549,
                    0.46400347,
                    0.3944651
                ],
                "xyz": [
                    0.572988321327636,
                    3.299843988728038,
                    4.520644327105614
                ],
                "label": "O",
                "properties": {}
            }
        ]
    },
    "spacegroup": {
        "source": "spglib",
        "symbol": "P2_1/c",
        "number": 14,
        "point_group": "2/m",
        "crystal_system": "monoclinic",
        "hall": "-P 2ybc"
    },
    "dielectric": {
        "epsilon_ionic": [
            [
                6.21988339,
                0.0,
                1.97197531
            ],
            [
                0.0,
                6.95674667,
                3e-08
            ],
            [
                1.97197531,
                3e-08,
                9.67725281
            ]
        ],
        "epsilon_ionic_avg": 7.617960956666667,
        "epsilon_ionic_eig": [
            10.570978718083559,
            5.326157481916443,
            6.956746669999999
        ],
        "epsilon_electronic": [
            [
                3.48136769,
                0.0,
                0.18847405
            ],
            [
                0.0,
                3.57677883,
                0.0
            ],
            [
                0.18847389,
                0.0,
                3.50650787
            ]
        ],
        "epsilon_electronic_avg": 3.521551463333333,
        "epsilon_electronic_eig": [
            3.3050451000725802,
            3.6828304599274198,
            3.57677883
        ]
    },
    "phonon": {
        "lowest_freq": -0.04332518256931394,
        "frequency": [
            -0.04332518256931394,
            -0.03203655288707361,
            -0.030011905932750885,
            0.9613261407645908,
            1.058983070508454,
            1.200242690072204,
            1.2168268951034402,
            1.2392817579518278,
            1.305001470084645,
            1.318730900284689,
            1.518475764962715,
            1.5392196189143859,
            1.557676193476364,
            1.5759419906589434,
            1.713786169721881,
            1.7161226472135889,
            1.799740327760652,
            1.8400346844431876,
            1.9149324023125494,
            1.9229285943603724,
            2.0086566813101348,
            2.166971882349141,
            2.1802987871037263,
            2.276547073907334,
            2.289691810709937,
            2.3012687254930624,
            2.3560520771860842,
            2.480310637257261,
            2.5153371909835602,
            2.5358337233931305,
            2.537304892012634,
            2.5529776090540226,
            2.7063102231957723,
            2.842128542146228,
            2.871076180615096,
            2.9083368028710623,
            2.96271977888328,
            3.027249165819933,
            3.0341719143716745,
            3.091866836301437,
            3.1735702674011823,
            3.18399156064838,
            3.2350653062241146,
            3.2437684149420734,
            3.527380543881937,
            3.6105341897076273,
            3.6736107330412735,
            3.709947698794286,
            3.99063415446242,
            3.9978507011695914,
            4.036202098613058,
            4.075213738837514,
            4.432625113320824,
            4.567777250746744,
            4.869435442800157,
            4.920186344296707,
            5.020775362451065,
            5.239716605637568,
            5.31920825043938,
            5.409954810929809,
            5.522265917188559,
            5.663031083157743,
            5.695723593372283,
            5.872758192280386,
            6.26480770302141,
            6.406580586511073,
            6.5497483818637,
            6.665794634700997,
            10.410753363156052,
            10.467801461116602,
            10.649698752590245,
            10.752129471790862,
            11.473809874661614,
            11.792421480903515,
            11.81653761171348,
            12.11731803362962,
            13.719548928775282,
            13.775088996700303,
            14.107231981609987,
            14.315640654105886,
            14.973275795572738,
            15.063882527203102,
            15.274103472181109,
            15.295997845881454
        ]
    },
    "born_effective_charge": {
        "avg_abs_trace": 1.6888883333333333,
        "tensors": [
            [
                [
                    0.92057,
                    0.00721,
                    -0.02104
                ],
                [
                    -0.08654,
                    1.29131,
                    -0.0004
                ],
                [
                    -0.02524,
                    -0.104,
                    1.23468
                ]
            ],
            [
                [
                    0.92057,
                    -0.00721,
                    -0.02104
                ],
                [
                    0.08664,
                    1.29184,
                    0.00021
                ],
                [
                    -0.02524,
                    0.104,
                    1.23468
                ]
            ],
            [
                [
                    1.2599,
                    -0.06772,
                    0.03937
                ],
                [
                    0.02226,
                    1.22797,
                    0.01407
                ],
                [
                    -0.0372,
                    0.03487,
                    1.21085
                ]
            ],
            [
                [
                    1.34734,
                    -0.06963,
                    -0.11101
                ],
                [
                    -0.08235,
                    1.05964,
                    -0.09464
                ],
                [
                    0.00041,
                    -0.15177,
                    1.18148
                ]
            ],
            [
                [
                    1.34769,
                    0.06963,
                    -0.11118
                ],
                [
                    0.08235,
                    1.05964,
                    0.09464
                ],
                [
                    0.00047,
                    0.1516,
                    1.18132
                ]
            ],
            [
                [
                    1.34769,
                    -0.06963,
                    -0.11118
                ],
                [
                    -0.08242,
                    1.06007,
                    -0.09439
                ],
                [
                    0.00047,
                    -0.1516,
                    1.18132
                ]
            ],
            [
                [
                    1.34734,
                    0.06963,
                    -0.11101
                ],
                [
                    0.08242,
                    1.06007,
                    0.09439
                ],
                [
                    0.00041,
                    0.15177,
                    1.18148
                ]
            ],
            [
                [
                    1.2599,
                    0.06772,
                    0.03937
                ],
                [
                    -0.02199,
                    1.22798,
                    -0.01396
                ],
                [
                    -0.0372,
                    -0.03487,
                    1.21085
                ]
            ],
            [
                [
                    1.26,
                    -0.06756,
                    0.03936
                ],
                [
                    0.02199,
                    1.22798,
                    0.01396
                ],
                [
                    -0.03713,
                    0.03492,
                    1.21085
                ]
            ],
            [
                [
                    1.26,
                    0.06756,
                    0.03936
                ],
                [
                    -0.02226,
                    1.22797,
                    -0.01407
                ],
                [
                    -0.03713,
                    -0.03492,
                    1.21085
                ]
            ],
            [
                [
                    0.92044,
                    -0.00714,
                    -0.02109
                ],
                [
                    0.08654,
                    1.29131,
                    0.0004
                ],
                [
                    -0.02533,
                    0.10397,
                    1.23485
                ]
            ],
            [
                [
                    0.92044,
                    0.00714,
                    -0.02109
                ],
                [
                    -0.08664,
                    1.29184,
                    -0.00021
                ],
                [
                    -0.02533,
                    -0.10397,
                    1.23485
                ]
            ],
            [
                [
                    2.31378,
                    0.45913,
                    0.68094
                ],
                [
                    0.45621,
                    2.48912,
                    -0.12815
                ],
                [
                    0.66871,
                    -0.1857,
                    2.19595
                ]
            ],
            [
                [
                    2.31407,
                    0.45906,
                    0.68106
                ],
                [
                    0.45597,
                    2.48896,
                    -0.1279
                ],
                [
                    0.66862,
                    -0.18566,
                    2.19598
                ]
            ],
            [
                [
                    2.31378,
                    -0.45913,
                    0.68094
                ],
                [
                    -0.45597,
                    2.48896,
                    0.1279
                ],
                [
                    0.66871,
                    0.1857,
                    2.19595
                ]
            ],
            [
                [
                    2.31407,
                    -0.45906,
                    0.68106
                ],
                [
                    -0.45621,
                    2.48912,
                    0.12815
                ],
                [
                    0.66862,
                    0.18566,
                    2.19598
                ]
            ],
            [
                [
                    -1.97417,
                    -0.2753,
                    -0.55511
                ],
                [
                    -0.1778,
                    -1.92068,
                    -0.21997
                ],
                [
                    -0.50475,
                    -0.33125,
                    -2.10972
                ]
            ],
            [
                [
                    -2.1363,
                    0.2561,
                    -0.0648
                ],
                [
                    0.07565,
                    -1.64318,
                    0.32979
                ],
                [
                    -0.0393,
                    0.25346,
                    -2.07217
                ]
            ],
            [
                [
                    -2.13632,
                    -0.25607,
                    -0.06482
                ],
                [
                    -0.07565,
                    -1.64318,
                    -0.32979
                ],
                [
                    -0.03945,
                    -0.25333,
                    -2.07206
                ]
            ],
            [
                [
                    -1.7315,
                    0.37936,
                    0.03135
                ],
                [
                    0.39651,
                    -2.50495,
                    -0.15251
                ],
                [
                    -0.06264,
                    -0.07389,
                    -1.64146
                ]
            ],
            [
                [
                    -1.73189,
                    -0.38007,
                    0.03159
                ],
                [
                    -0.39651,
                    -2.50495,
                    0.15251
                ],
                [
                    -0.0629,
                    0.07321,
                    -1.64134
                ]
            ],
            [
                [
                    -1.73189,
                    0.38007,
                    0.03159
                ],
                [
                    0.39626,
                    -2.50467,
                    -0.15237
                ],
                [
                    -0.0629,
                    -0.07321,
                    -1.64134
                ]
            ],
            [
                [
                    -1.7315,
                    -0.37936,
                    0.03135
                ],
                [
                    -0.39626,
                    -2.50467,
                    0.15237
                ],
                [
                    -0.06264,
                    0.07389,
                    -1.64146
                ]
            ],
            [
                [
                    -1.97417,
                    0.2753,
                    -0.55511
                ],
                [
                    0.1776,
                    -1.92056,
                    0.21991
                ],
                [
                    -0.50475,
                    0.33125,
                    -2.10972
                ]
            ],
            [
                [
                    -2.13632,
                    0.25607,
                    -0.06482
                ],
                [
                    0.07515,
                    -1.64285,
                    0.32987
                ],
                [
                    -0.03945,
                    0.25333,
                    -2.07206
                ]
            ],
            [
                [
                    -1.97363,
                    -0.27475,
                    -0.55461
                ],
                [
                    -0.1776,
                    -1.92056,
                    -0.21991
                ],
                [
                    -0.50428,
                    -0.33088,
                    -2.10922
                ]
            ],
            [
                [
                    -1.97363,
                    0.27475,
                    -0.55461
                ],
                [
                    0.1778,
                    -1.92068,
                    0.21997
                ],
                [
                    -0.50428,
                    0.33088,
                    -2.10922
                ]
            ],
            [
                [
                    -2.1363,
                    -0.2561,
                    -0.0648
                ],
                [
                    -0.07515,
                    -1.64285,
                    -0.32987
                ],
                [
                    -0.0393,
                    -0.25346,
                    -2.07217
                ]
            ]
        ]
    },
    "band_gap": 1.5344000000000002,
    "is_direct": false,
    "formula": "Rb3TlO3"
}