{
    "mp_id": "mp-27684",
    "nelements": 2,
    "nsites": 14,
    "elements": [
        "O",
        "Tl"
    ],
    "structure": {
        "@module": "pymatgen.core.structure",
        "@class": "Structure",
        "charge": null,
        "lattice": {
            "matrix": [
                [
                    7.5433266,
                    0.0,
                    0.00269513
                ],
                [
                    0.0,
                    3.47264104,
                    0.0
                ],
                [
                    -3.56641537,
                    0.0,
                    10.26196947
                ]
            ],
            "a": 7.543327081466988,
            "b": 3.47264104,
            "c": 10.864038659475781,
            "alpha": 90.0,
            "beta": 109.14376625387175,
            "gamma": 90.0,
            "volume": 268.84839398270975
        },
        "sites": [
            {
                "species": [
                    {
                        "element": "Tl",
                        "occu": 1
                    }
                ],
                "abc": [
                    0.4249957,
                    0.75,
                    0.6098058
                ],
                "xyz": [
                    1.031060590860474,
                    2.6044807800000003,
                    6.258953920889867
                ],
                "label": "Tl",
                "properties": {}
            },
            {
                "species": [
                    {
                        "element": "Tl",
                        "occu": 1
                    }
                ],
                "abc": [
                    0.5750043,
                    0.25,
                    0.3901942
                ],
                "xyz": [
                    2.9458506391395267,
                    0.86816026,
                    4.005710679110132
                ],
                "label": "Tl",
                "properties": {}
            },
            {
                "species": [
                    {
                        "element": "Tl",
                        "occu": 1
                    }
                ],
                "abc": [
                    0.06587674,
                    0.25,
                    0.36597367
                ],
                "xyz": [
                    -0.8082843565400237,
                    0.86816026,
                    3.755788174742131
                ],
                "label": "Tl",
                "properties": {}
            },
            {
                "species": [
                    {
                        "element": "Tl",
                        "occu": 1
                    }
                ],
                "abc": [
                    0.93412326,
                    0.75,
                    0.63402633
                ],
                "xyz": [
                    4.785195586540025,
                    2.6044807800000003,
                    6.508876425257869
                ],
                "label": "Tl",
                "properties": {}
            },
            {
                "species": [
                    {
                        "element": "Tl",
                        "occu": 1
                    }
                ],
                "abc": [
                    0.30191659,
                    0.25,
                    0.85538341
                ],
                "xyz": [
                    -0.7731970963387176,
                    0.86816026,
                    8.7787321430237
                ],
                "label": "Tl",
                "properties": {}
            },
            {
                "species": [
                    {
                        "element": "Tl",
                        "occu": 1
                    }
                ],
                "abc": [
                    0.69808341,
                    0.75,
                    0.14461659
                ],
                "xyz": [
                    4.750108326338717,
                    2.6044807800000003,
                    1.4859324569763006
                ],
                "label": "Tl",
                "properties": {}
            },
            {
                "species": [
                    {
                        "element": "Tl",
                        "occu": 1
                    }
                ],
                "abc": [
                    0.77711755,
                    0.25,
                    0.86776532
                ],
                "xyz": [
                    2.767239911440863,
                    0.86816026,
                    8.907075653787311
                ],
                "label": "Tl",
                "properties": {}
            },
            {
                "species": [
                    {
                        "element": "Tl",
                        "occu": 1
                    }
                ],
                "abc": [
                    0.22288245,
                    0.75,
                    0.13223468
                ],
                "xyz": [
                    1.2096713185591386,
                    2.6044807800000003,
                    1.3575889462126882
                ],
                "label": "Tl",
                "properties": {}
            },
            {
                "species": [
                    {
                        "element": "O",
                        "occu": 1
                    }
                ],
                "abc": [
                    0.21987346,
                    0.25,
                    0.59928745
                ],
                "xyz": [
                    -0.4787306532760707,
                    0.86816026,
                    6.150462103212402
                ],
                "label": "O",
                "properties": {}
            },
            {
                "species": [
                    {
                        "element": "O",
                        "occu": 1
                    }
                ],
                "abc": [
                    0.78012654,
                    0.75,
                    0.40071255
                ],
                "xyz": [
                    4.455641883276071,
                    2.6044807800000003,
                    4.114202496787598
                ],
                "label": "O",
                "properties": {}
            },
            {
                "species": [
                    {
                        "element": "O",
                        "occu": 1
                    }
                ],
                "abc": [
                    0.47626007,
                    0.25,
                    0.17129222
                ],
                "xyz": [
                    2.9816860483794407,
                    0.86816026,
                    1.7590791148909826
                ],
                "label": "O",
                "properties": {}
            },
            {
                "species": [
                    {
                        "element": "O",
                        "occu": 1
                    }
                ],
                "abc": [
                    0.52373993,
                    0.75,
                    0.82870778
                ],
                "xyz": [
                    0.9952251816205591,
                    2.6044807800000003,
                    8.505585485109018
                ],
                "label": "O",
                "properties": {}
            },
            {
                "species": [
                    {
                        "element": "O",
                        "occu": 1
                    }
                ],
                "abc": [
                    0.63580056,
                    0.25,
                    0.6117813
                ],
                "xyz": [
                    2.6141850451443145,
                    0.86816026,
                    6.279794588080184
                ],
                "label": "O",
                "properties": {}
            },
            {
                "species": [
                    {
                        "element": "O",
                        "occu": 1
                    }
                ],
                "abc": [
                    0.36419944,
                    0.75,
                    0.3882187
                ],
                "xyz": [
                    1.3627261848556849,
                    2.6044807800000003,
                    3.9848700119198166
                ],
                "label": "O",
                "properties": {}
            }
        ]
    },
    "spacegroup": {
        "source": "spglib",
        "symbol": "P2_1/m",
        "number": 11,
        "point_group": "2/m",
        "crystal_system": "monoclinic",
        "hall": "-P 2yb"
    },
    "dielectric": {
        "epsilon_ionic": [
            [
                58.12951173,
                -4.2e-07,
                4.16016721
            ],
            [
                -4.2e-07,
                23.4757379,
                1.2e-06
            ],
            [
                4.16016721,
                1.2e-06,
                16.0191634
            ]
        ],
        "epsilon_ionic_avg": 32.54147101,
        "epsilon_ionic_eig": [
            58.53656835151524,
            15.612106778484568,
            23.475737900000198
        ],
        "epsilon_electronic": [
            [
                10.25150353,
                0.0,
                0.00936004
            ],
            [
                0.0,
                10.42039452,
                0.0
            ],
            [
                0.00936247,
                0.0,
                10.00438384
            ]
        ],
        "epsilon_electronic_avg": 10.225427296666666,
        "epsilon_electronic_eig": [
            10.251857640590655,
            10.004029729409345,
            10.42039452
        ]
    },
    "phonon": {
        "lowest_freq": -0.04571929669932341,
        "frequency": [
            -0.04571929669932341,
            -0.03201973904658037,
            -0.009544981036372052,
            0.7921915972180087,
            0.8182754642195293,
            0.958147218066275,
            1.058992891628031,
            1.0614657424779985,
            1.1028397565207047,
            1.2172133511907028,
            1.2568719071484626,
            1.294971530456244,
            1.5230166912932712,
            1.6646413158780267,
            1.708645495036711,
            1.7974920529501732,
            1.8465259419738005,
            1.9347936685605993,
            2.1260140204289604,
            2.6623396951017115,
            2.8238902579514744,
            3.0238647784689348,
            3.3204334292543045,
            3.90625846536864,
            5.680143375443073,
            6.082955093370376,
            6.097391927547341,
            6.183896339509942,
            6.31264470891368,
            6.61048445422425,
            7.089354568713524,
            7.2020057721349025,
            7.703964917762827,
            8.228958748889747,
            8.43250538285065,
            8.448914949694286,
            8.566819486530264,
            8.73704133822766,
            10.143479520694248,
            10.860888502777577,
            11.815625947204575,
            11.898324049848826
        ]
    },
    "born_effective_charge": {
        "avg_abs_trace": 2.709418095238095,
        "tensors": [
            [
                [
                    3.62584,
                    0.0,
                    -0.22976
                ],
                [
                    2e-05,
                    4.06858,
                    0.00081
                ],
                [
                    -0.02775,
                    0.0,
                    3.62623
                ]
            ],
            [
                [
                    3.62543,
                    0.0,
                    -0.23031
                ],
                [
                    -2e-05,
                    4.06858,
                    -0.00081
                ],
                [
                    -0.02645,
                    0.0,
                    3.62706
                ]
            ],
            [
                [
                    2.36212,
                    0.0,
                    0.1811
                ],
                [
                    -0.00025,
                    1.51899,
                    -0.00179
                ],
                [
                    0.20253,
                    0.0,
                    2.0207
                ]
            ],
            [
                [
                    2.36184,
                    0.0,
                    0.18116
                ],
                [
                    0.00025,
                    1.51899,
                    0.00179
                ],
                [
                    0.20407,
                    0.0,
                    2.01998
                ]
            ],
            [
                [
                    2.00521,
                    0.0,
                    -0.30353
                ],
                [
                    -0.00096,
                    1.78021,
                    0.00038
                ],
                [
                    -0.18214,
                    0.0,
                    1.77185
                ]
            ],
            [
                [
                    2.00417,
                    0.0,
                    -0.30436
                ],
                [
                    0.00096,
                    1.78021,
                    -0.00038
                ],
                [
                    -0.17987,
                    0.0,
                    1.77294
                ]
            ],
            [
                [
                    1.86195,
                    0.0,
                    0.29978
                ],
                [
                    -0.00031,
                    1.8599,
                    0.00162
                ],
                [
                    0.45015,
                    0.0,
                    1.94726
                ]
            ],
            [
                [
                    1.86201,
                    0.0,
                    0.29929
                ],
                [
                    0.00031,
                    1.8599,
                    -0.00162
                ],
                [
                    0.45026,
                    0.0,
                    1.94785
                ]
            ],
            [
                [
                    -2.91442,
                    0.0,
                    -0.00852
                ],
                [
                    -0.00014,
                    -2.58071,
                    -0.00062
                ],
                [
                    -0.08251,
                    0.0,
                    -3.99783
                ]
            ],
            [
                [
                    -2.9135,
                    0.0,
                    -0.00814
                ],
                [
                    0.00014,
                    -2.58071,
                    0.00062
                ],
                [
                    -0.08508,
                    0.0,
                    -3.99844
                ]
            ],
            [
                [
                    -3.77173,
                    0.0,
                    -0.12645
                ],
                [
                    0.00021,
                    -3.71551,
                    0.00067
                ],
                [
                    -0.28898,
                    0.0,
                    -2.12006
                ]
            ],
            [
                [
                    -3.77146,
                    0.0,
                    -0.1274
                ],
                [
                    -0.00021,
                    -3.71551,
                    -0.00067
                ],
                [
                    -0.28992,
                    0.0,
                    -2.11845
                ]
            ],
            [
                [
                    -3.16881,
                    0.0,
                    0.18843
                ],
                [
                    2e-05,
                    -2.93145,
                    4e-05
                ],
                [
                    -0.07229,
                    0.0,
                    -3.249
                ]
            ],
            [
                [
                    -3.16865,
                    0.0,
                    0.18871
                ],
                [
                    -2e-05,
                    -2.93145,
                    -4e-05
                ],
                [
                    -0.07202,
                    0.0,
                    -3.25007
                ]
            ]
        ]
    },
    "band_gap": 0.7229000000000001,
    "is_direct": false,
    "formula": "Tl4O3"
}