{
    "mp_id": "mp-28382",
    "nelements": 3,
    "nsites": 32,
    "elements": [
        "K",
        "O",
        "Zn"
    ],
    "structure": {
        "@module": "pymatgen.core.structure",
        "@class": "Structure",
        "charge": null,
        "lattice": {
            "matrix": [
                [
                    6.95699427,
                    0.00804522,
                    -0.00331665
                ],
                [
                    3.0645281,
                    8.34081383,
                    -0.00447936
                ],
                [
                    0.117506,
                    2.50145648,
                    10.73171452
                ]
            ],
            "a": 6.95699971241518,
            "b": 8.885973660048453,
            "c": 11.020017637016233,
            "alpha": 77.51098590674563,
            "beta": 89.40060726467051,
            "gamma": 69.75971576198225,
            "volume": 622.5203202688845
        },
        "sites": [
            {
                "species": [
                    {
                        "element": "K",
                        "occu": 1
                    }
                ],
                "abc": [
                    0.65293293,
                    0.09448802,
                    0.88316728
                ],
                "xyz": [
                    4.935789299511352,
                    3.0025644885323857,
                    9.475310326505355
                ],
                "label": "K",
                "properties": {}
            },
            {
                "species": [
                    {
                        "element": "K",
                        "occu": 1
                    }
                ],
                "abc": [
                    0.22511023,
                    0.34652445,
                    0.0172119
                ],
                "xyz": [
                    2.6300469961118274,
                    2.935161805105856,
                    0.1824143775421065
                ],
                "label": "K",
                "properties": {}
            },
            {
                "species": [
                    {
                        "element": "K",
                        "occu": 1
                    }
                ],
                "abc": [
                    0.84432399,
                    0.12419873,
                    0.37719262
                ],
                "xyz": [
                    6.29889005452857,
                    1.986242180610441,
                    4.044566858906196
                ],
                "label": "K",
                "properties": {}
            },
            {
                "species": [
                    {
                        "element": "K",
                        "occu": 1
                    }
                ],
                "abc": [
                    0.15567601,
                    0.87580127,
                    0.62280738
                ],
                "xyz": [
                    3.8401383154714295,
                    8.864073349389558,
                    6.679351651093805
                ],
                "label": "K",
                "properties": {}
            },
            {
                "species": [
                    {
                        "element": "K",
                        "occu": 1
                    }
                ],
                "abc": [
                    0.30606657,
                    0.64602994,
                    0.42054112
                ],
                "xyz": [
                    4.158496383146587,
                    6.442843140766823,
                    4.509218327399634
                ],
                "label": "K",
                "properties": {}
            },
            {
                "species": [
                    {
                        "element": "K",
                        "occu": 1
                    }
                ],
                "abc": [
                    0.12547602,
                    0.13322527,
                    0.7949978
                ],
                "xyz": [
                    1.3746255471942925,
                    3.1008690551028524,
                    8.530676509640896
                ],
                "label": "K",
                "properties": {}
            },
            {
                "species": [
                    {
                        "element": "K",
                        "occu": 1
                    }
                ],
                "abc": [
                    0.87452398,
                    0.86677473,
                    0.2050022
                ],
                "xyz": [
                    8.764402822805707,
                    7.749446474897148,
                    2.193242000359104
                ],
                "label": "K",
                "properties": {}
            },
            {
                "species": [
                    {
                        "element": "K",
                        "occu": 1
                    }
                ],
                "abc": [
                    0.38786769,
                    0.0900826,
                    0.32941948
                ],
                "xyz": [
                    3.013162721286076,
                    1.5785111697035301,
                    3.533545882917675
                ],
                "label": "K",
                "properties": {}
            },
            {
                "species": [
                    {
                        "element": "K",
                        "occu": 1
                    }
                ],
                "abc": [
                    0.61213231,
                    0.9099174,
                    0.67058052
                ],
                "xyz": [
                    7.125865648713924,
                    9.27180436029647,
                    7.190372627082326
                ],
                "label": "K",
                "properties": {}
            },
            {
                "species": [
                    {
                        "element": "K",
                        "occu": 1
                    }
                ],
                "abc": [
                    0.01954265,
                    0.44729539,
                    0.29787554
                ],
                "xyz": [
                    1.5417095589293146,
                    4.476087499692376,
                    3.194646844562568
                ],
                "label": "K",
                "properties": {}
            },
            {
                "species": [
                    {
                        "element": "K",
                        "occu": 1
                    }
                ],
                "abc": [
                    0.98045735,
                    0.55270461,
                    0.70212446
                ],
                "xyz": [
                    8.597318811070686,
                    6.374228030307624,
                    7.529271665437432
                ],
                "label": "K",
                "properties": {}
            },
            {
                "species": [
                    {
                        "element": "K",
                        "occu": 1
                    }
                ],
                "abc": [
                    0.49523511,
                    0.52815195,
                    0.80125283
                ],
                "xyz": [
                    5.158036329459595,
                    6.413500448034981,
                    8.594808325655759
                ],
                "label": "K",
                "properties": {}
            },
            {
                "species": [
                    {
                        "element": "K",
                        "occu": 1
                    }
                ],
                "abc": [
                    0.50476489,
                    0.47184805,
                    0.19874717
                ],
                "xyz": [
                    4.980992040540406,
                    4.436815081965019,
                    2.129110184344242
                ],
                "label": "K",
                "properties": {}
            },
            {
                "species": [
                    {
                        "element": "K",
                        "occu": 1
                    }
                ],
                "abc": [
                    0.69393343,
                    0.35397006,
                    0.57945888
                ],
                "xyz": [
                    5.980531986853412,
                    4.407472389233177,
                    6.2147001826003665
                ],
                "label": "K",
                "properties": {}
            },
            {
                "species": [
                    {
                        "element": "K",
                        "occu": 1
                    }
                ],
                "abc": [
                    0.77488977,
                    0.65347555,
                    0.9827881
                ],
                "xyz": [
                    7.508981373888173,
                    7.915153724894144,
                    10.541504132457893
                ],
                "label": "K",
                "properties": {}
            },
            {
                "species": [
                    {
                        "element": "K",
                        "occu": 1
                    }
                ],
                "abc": [
                    0.34706707,
                    0.90551198,
                    0.11683272
                ],
                "xyz": [
                    5.203239070488647,
                    7.847751041467615,
                    1.2486081834946463
                ],
                "label": "K",
                "properties": {}
            },
            {
                "species": [
                    {
                        "element": "Zn",
                        "occu": 1
                    }
                ],
                "abc": [
                    0.84215,
                    0.23501568,
                    0.06313595
                ],
                "xyz": [
                    6.586463732721808,
                    2.1249291472823106,
                    0.6737111547151291
                ],
                "label": "Zn",
                "properties": {}
            },
            {
                "species": [
                    {
                        "element": "Zn",
                        "occu": 1
                    }
                ],
                "abc": [
                    0.15785,
                    0.76498432,
                    0.93686405
                ],
                "xyz": [
                    3.552564637278192,
                    8.72538638271769,
                    10.05020735528487
                ],
                "label": "Zn",
                "properties": {}
            },
            {
                "species": [
                    {
                        "element": "Zn",
                        "occu": 1
                    }
                ],
                "abc": [
                    0.7069048,
                    0.72227255,
                    0.44319327
                ],
                "xyz": [
                    7.183435036753771,
                    7.138656755838312,
                    4.750643776250792
                ],
                "label": "Zn",
                "properties": {}
            },
            {
                "species": [
                    {
                        "element": "Zn",
                        "occu": 1
                    }
                ],
                "abc": [
                    0.2930952,
                    0.27772745,
                    0.55680673
                ],
                "xyz": [
                    2.955593333246229,
                    3.7116587741616875,
                    5.973274733749208
                ],
                "label": "Zn",
                "properties": {}
            },
            {
                "species": [
                    {
                        "element": "O",
                        "occu": 1
                    }
                ],
                "abc": [
                    0.62954445,
                    0.69519585,
                    0.28950898
                ],
                "xyz": [
                    6.544203390892567,
                    6.5277580978778245,
                    3.1017257132536415
                ],
                "label": "O",
                "properties": {}
            },
            {
                "species": [
                    {
                        "element": "O",
                        "occu": 1
                    }
                ],
                "abc": [
                    0.913237,
                    0.80420396,
                    0.46437536
                ],
                "xyz": [
                    8.872457100755424,
                    7.87667745771024,
                    4.976912587095912
                ],
                "label": "O",
                "properties": {}
            },
            {
                "species": [
                    {
                        "element": "O",
                        "occu": 1
                    }
                ],
                "abc": [
                    0.086763,
                    0.19579604,
                    0.53562464
                ],
                "xyz": [
                    1.2665712692445739,
                    2.97363807228976,
                    5.747005922904089
                ],
                "label": "O",
                "properties": {}
            },
            {
                "species": [
                    {
                        "element": "O",
                        "occu": 1
                    }
                ],
                "abc": [
                    0.56384781,
                    0.67574091,
                    0.5820007
                ],
                "xyz": [
                    6.061901564590819,
                    7.09661482968229,
                    6.2409683901985105
                ],
                "label": "O",
                "properties": {}
            },
            {
                "species": [
                    {
                        "element": "O",
                        "occu": 1
                    }
                ],
                "abc": [
                    0.43615219,
                    0.32425909,
                    0.4179993
                ],
                "xyz": [
                    4.077126805409181,
                    3.7537007003177107,
                    4.48295011980149
                ],
                "label": "O",
                "properties": {}
            },
            {
                "species": [
                    {
                        "element": "O",
                        "occu": 1
                    }
                ],
                "abc": [
                    0.8633872,
                    0.35323177,
                    0.90454379
                ],
                "xyz": [
                    7.195357810756821,
                    5.2158634973198215,
                    9.702859919700684
                ],
                "label": "O",
                "properties": {}
            },
            {
                "species": [
                    {
                        "element": "O",
                        "occu": 1
                    }
                ],
                "abc": [
                    0.1366128,
                    0.64676823,
                    0.09545621
                ],
                "xyz": [
                    2.9436705592431793,
                    5.634452032680177,
                    1.0210585902993166
                ],
                "label": "O",
                "properties": {}
            },
            {
                "species": [
                    {
                        "element": "O",
                        "occu": 1
                    }
                ],
                "abc": [
                    0.61445676,
                    0.17335933,
                    0.10702274
                ],
                "xyz": [
                    4.818612510751378,
                    1.7186140635185765,
                    1.145723015966702
                ],
                "label": "O",
                "properties": {}
            },
            {
                "species": [
                    {
                        "element": "O",
                        "occu": 1
                    }
                ],
                "abc": [
                    0.38554324,
                    0.82664067,
                    0.89297726
                ],
                "xyz": [
                    5.320415859248621,
                    9.131701466481424,
                    9.578195494033299
                ],
                "label": "O",
                "properties": {}
            },
            {
                "species": [
                    {
                        "element": "O",
                        "occu": 1
                    }
                ],
                "abc": [
                    0.37045555,
                    0.30480415,
                    0.71049102
                ],
                "xyz": [
                    3.594824979107434,
                    4.322557432122175,
                    7.62219279674636
                ],
                "label": "O",
                "properties": {}
            },
            {
                "species": [
                    {
                        "element": "O",
                        "occu": 1
                    }
                ],
                "abc": [
                    0.94230598,
                    0.82310565,
                    0.81681698
                ],
                "xyz": [
                    9.17402859319238,
                    8.916184175582586,
                    8.759034358795601
                ],
                "label": "O",
                "properties": {}
            },
            {
                "species": [
                    {
                        "element": "O",
                        "occu": 1
                    }
                ],
                "abc": [
                    0.05769402,
                    0.17689435,
                    0.18318302
                ],
                "xyz": [
                    0.9649997768076204,
                    1.9341313544174146,
                    1.9648841512044015
                ],
                "label": "O",
                "properties": {}
            }
        ]
    },
    "spacegroup": {
        "source": "spglib",
        "symbol": "P-1",
        "number": 2,
        "point_group": "-1",
        "crystal_system": "triclinic",
        "hall": "-P 1"
    },
    "dielectric": {
        "epsilon_ionic": [
            [
                10.02050536,
                2.75419554,
                -2.99545808
            ],
            [
                2.75419554,
                8.79571034,
                0.63621197
            ],
            [
                -2.99545808,
                0.63621197,
                8.86564354
            ]
        ],
        "epsilon_ionic_avg": 9.227286413333333,
        "epsilon_ionic_eig": [
            4.93921836452105,
            13.280666410856883,
            9.461974464622063
        ],
        "epsilon_electronic": [
            [
                3.21548624,
                0.08989671,
                -0.00305388
            ],
            [
                0.08989819,
                3.03759486,
                -0.02762957
            ],
            [
                -0.00305415,
                -0.02762925,
                3.25923937
            ]
        ],
        "epsilon_electronic_avg": 3.1707734899999998,
        "epsilon_electronic_eig": [
            2.9978086607441647,
            3.2431976894651964,
            3.271314119790638
        ]
    },
    "phonon": {
        "lowest_freq": -0.07742226261038822,
        "frequency": [
            -0.07742226261038822,
            -0.06666359028979375,
            -0.04357683632560183,
            0.9274254928790981,
            1.134363390887809,
            1.3184770555749854,
            1.3558407118602394,
            1.6582536212396157,
            1.8244566184419966,
            2.027593905799197,
            2.06496382785629,
            2.1519042471769865,
            2.1693784880706155,
            2.3270691428802417,
            2.4051644752562487,
            2.5335102090664683,
            2.549763083494374,
            2.608115064446927,
            2.6278605957299503,
            2.746503082122213,
            2.8483843896260153,
            2.9303876742996766,
            3.010223420399569,
            3.094473023370938,
            3.2232776184184813,
            3.230441258920874,
            3.258330224438597,
            3.2877938640074444,
            3.412758713866386,
            3.472927831720493,
            3.574172151383225,
            3.579781304127604,
            3.6935772994721403,
            3.7623266116186707,
            3.880197360091937,
            3.9000820553030735,
            3.9695002309584213,
            4.071585809062193,
            4.080976826575508,
            4.176833060841607,
            4.226692322751701,
            4.309041792848058,
            4.413606783769157,
            4.426600791287026,
            4.570816601336719,
            4.6552512797563566,
            4.672030216750548,
            4.7085215253221975,
            4.814974488715746,
            4.936794123610267,
            4.961053789713801,
            4.977560476041601,
            5.031808468516741,
            5.350719268915231,
            5.3614984827782015,
            5.40994640818684,
            5.50026231208312,
            5.524193469493285,
            5.660074112942884,
            5.756327194462355,
            5.854468550403079,
            5.902467980897341,
            5.974383572119955,
            6.002065298302941,
            6.173710098742515,
            6.2673853514210585,
            6.421843848985397,
            6.632398976931211,
            6.697613652478052,
            6.898700095645134,
            7.00921915156073,
            7.162860707781991,
            7.4238102865257005,
            7.581190396170424,
            7.761650629618713,
            7.926358678746735,
            8.038774453686301,
            8.04611071881901,
            8.307607332433259,
            9.149815517273707,
            9.16956203788742,
            9.352237255079025,
            9.624069737046925,
            10.060780911989719,
            14.247817835603957,
            14.262450150815006,
            14.586713498950802,
            14.605727302621736,
            14.704983659867732,
            14.936811107749676,
            15.345537376132468,
            15.493794697378055,
            16.02974355968254,
            16.116014808769194,
            16.315246673310686,
            16.401425755071525
        ]
    },
    "born_effective_charge": {
        "avg_abs_trace": 1.427983125,
        "tensors": [
            [
                [
                    1.07868,
                    0.00464,
                    0.11931
                ],
                [
                    0.01563,
                    1.15659,
                    0.06453
                ],
                [
                    0.12848,
                    -0.01927,
                    1.05571
                ]
            ],
            [
                [
                    1.26909,
                    0.03052,
                    0.03294
                ],
                [
                    0.05613,
                    1.03847,
                    -0.01742
                ],
                [
                    -0.01981,
                    -0.0261,
                    1.00345
                ]
            ],
            [
                [
                    1.07382,
                    0.06664,
                    0.03502
                ],
                [
                    0.06033,
                    1.05724,
                    0.02119
                ],
                [
                    -0.01377,
                    0.02934,
                    1.14857
                ]
            ],
            [
                [
                    1.07382,
                    0.06664,
                    0.03496
                ],
                [
                    0.06032,
                    1.05726,
                    0.02116
                ],
                [
                    -0.01377,
                    0.02935,
                    1.14858
                ]
            ],
            [
                [
                    1.2395,
                    -0.00768,
                    0.03203
                ],
                [
                    0.02989,
                    1.0415,
                    -0.00253
                ],
                [
                    0.03774,
                    -0.01178,
                    0.99442
                ]
            ],
            [
                [
                    0.94385,
                    0.03274,
                    -0.13928
                ],
                [
                    0.03192,
                    1.11479,
                    -0.04851
                ],
                [
                    -0.15901,
                    -0.0491,
                    1.06487
                ]
            ],
            [
                [
                    0.94379,
                    0.03269,
                    -0.1393
                ],
                [
                    0.0319,
                    1.11477,
                    -0.04853
                ],
                [
                    -0.15898,
                    -0.0491,
                    1.06476
                ]
            ],
            [
                [
                    1.15018,
                    -0.02617,
                    0.02211
                ],
                [
                    -0.02678,
                    1.11917,
                    0.08775
                ],
                [
                    0.06029,
                    0.10559,
                    1.17485
                ]
            ],
            [
                [
                    1.15016,
                    -0.02617,
                    0.02205
                ],
                [
                    -0.0268,
                    1.11921,
                    0.08776
                ],
                [
                    0.0603,
                    0.10562,
                    1.17487
                ]
            ],
            [
                [
                    1.03728,
                    -0.02301,
                    -0.00454
                ],
                [
                    -0.06105,
                    1.18207,
                    -0.06209
                ],
                [
                    -0.02874,
                    -0.0394,
                    1.15686
                ]
            ],
            [
                [
                    1.03728,
                    -0.02311,
                    -0.00456
                ],
                [
                    -0.061,
                    1.182,
                    -0.06208
                ],
                [
                    -0.02875,
                    -0.0394,
                    1.15693
                ]
            ],
            [
                [
                    1.00007,
                    -0.00358,
                    -0.00923
                ],
                [
                    -0.02159,
                    1.13568,
                    -0.05235
                ],
                [
                    0.0823,
                    -0.00681,
                    1.18605
                ]
            ],
            [
                [
                    1.00016,
                    -0.00357,
                    -0.00919
                ],
                [
                    -0.02156,
                    1.1357,
                    -0.05235
                ],
                [
                    0.08225,
                    -0.00677,
                    1.18601
                ]
            ],
            [
                [
                    1.23949,
                    -0.00763,
                    0.03199
                ],
                [
                    0.02989,
                    1.04153,
                    -0.00251
                ],
                [
                    0.0377,
                    -0.01176,
                    0.99445
                ]
            ],
            [
                [
                    1.26908,
                    0.03058,
                    0.03301
                ],
                [
                    0.05612,
                    1.0385,
                    -0.01742
                ],
                [
                    -0.01977,
                    -0.02615,
                    1.00346
                ]
            ],
            [
                [
                    1.07874,
                    0.00461,
                    0.11939
                ],
                [
                    0.01565,
                    1.15656,
                    0.06456
                ],
                [
                    0.12846,
                    -0.01921,
                    1.0557
                ]
            ],
            [
                [
                    1.87163,
                    0.26825,
                    0.02471
                ],
                [
                    0.28583,
                    0.29214,
                    -0.44881
                ],
                [
                    0.03165,
                    -0.47964,
                    1.73423
                ]
            ],
            [
                [
                    1.87163,
                    0.26831,
                    0.02481
                ],
                [
                    0.28584,
                    0.29215,
                    -0.44874
                ],
                [
                    0.03164,
                    -0.47955,
                    1.73412
                ]
            ],
            [
                [
                    1.65673,
                    0.56367,
                    -0.09854
                ],
                [
                    0.54282,
                    0.44957,
                    0.30728
                ],
                [
                    -0.11077,
                    0.3426,
                    1.84462
                ]
            ],
            [
                [
                    1.65656,
                    0.5636,
                    -0.09832
                ],
                [
                    0.54278,
                    0.44956,
                    0.30735
                ],
                [
                    -0.11102,
                    0.34251,
                    1.8447
                ]
            ],
            [
                [
                    -1.87885,
                    -0.1714,
                    -0.13646
                ],
                [
                    -0.20595,
                    -1.59081,
                    -0.16025
                ],
                [
                    -0.192,
                    -0.15155,
                    -2.22088
                ]
            ],
            [
                [
                    -2.22052,
                    -0.30494,
                    -0.09398
                ],
                [
                    -0.2963,
                    -1.67127,
                    -0.00761
                ],
                [
                    -0.0761,
                    -0.03176,
                    -1.83707
                ]
            ],
            [
                [
                    -2.22075,
                    -0.305,
                    -0.094
                ],
                [
                    -0.29617,
                    -1.67118,
                    -0.00762
                ],
                [
                    -0.07554,
                    -0.03158,
                    -1.83707
                ]
            ],
            [
                [
                    -1.92014,
                    -0.1404,
                    0.28089
                ],
                [
                    -0.14872,
                    -1.58243,
                    -0.04376
                ],
                [
                    0.29633,
                    -0.11549,
                    -2.20235
                ]
            ],
            [
                [
                    -1.91958,
                    -0.14034,
                    0.28016
                ],
                [
                    -0.14864,
                    -1.58242,
                    -0.04383
                ],
                [
                    0.2965,
                    -0.11544,
                    -2.20255
                ]
            ],
            [
                [
                    -1.78762,
                    -0.09995,
                    0.08035
                ],
                [
                    -0.08073,
                    -1.62469,
                    0.24853
                ],
                [
                    0.14026,
                    0.24298,
                    -2.25802
                ]
            ],
            [
                [
                    -1.78739,
                    -0.09969,
                    0.07964
                ],
                [
                    -0.0807,
                    -1.62467,
                    0.24849
                ],
                [
                    0.14016,
                    0.24279,
                    -2.25779
                ]
            ],
            [
                [
                    -2.31823,
                    -0.13704,
                    0.13003
                ],
                [
                    -0.12297,
                    -1.60339,
                    0.0343
                ],
                [
                    0.12882,
                    0.07096,
                    -1.78379
                ]
            ],
            [
                [
                    -2.31861,
                    -0.13707,
                    0.1302
                ],
                [
                    -0.12302,
                    -1.60336,
                    0.03431
                ],
                [
                    0.12869,
                    0.07084,
                    -1.78373
                ]
            ],
            [
                [
                    -1.87866,
                    -0.17122,
                    -0.13599
                ],
                [
                    -0.20591,
                    -1.5908,
                    -0.16026
                ],
                [
                    -0.19188,
                    -0.15146,
                    -2.2209
                ]
            ],
            [
                [
                    -2.1954,
                    -0.05248,
                    -0.27491
                ],
                [
                    -0.05862,
                    -1.51471,
                    0.0797
                ],
                [
                    -0.30576,
                    0.13933,
                    -2.06146
                ]
            ],
            [
                [
                    -2.19576,
                    -0.05242,
                    -0.27532
                ],
                [
                    -0.05856,
                    -1.51471,
                    0.07977
                ],
                [
                    -0.30591,
                    0.1394,
                    -2.06161
                ]
            ]
        ]
    },
    "band_gap": 1.8286,
    "is_direct": false,
    "formula": "K4ZnO3"
}