{
    "mp_id": "mp-22443",
    "nelements": 3,
    "nsites": 12,
    "elements": [
        "In",
        "O",
        "V"
    ],
    "structure": {
        "@module": "pymatgen.core.structure",
        "@class": "Structure",
        "charge": null,
        "lattice": {
            "matrix": [
                [
                    2.89745154,
                    -4.29553727,
                    0.0
                ],
                [
                    2.89745154,
                    4.29553727,
                    0.0
                ],
                [
                    0.0,
                    0.0,
                    6.68808676
                ]
            ],
            "a": 5.1813961308326375,
            "b": 5.1813961308326375,
            "c": 6.68808676,
            "alpha": 90.0,
            "beta": 90.0,
            "gamma": 111.99862364984244,
            "volume": 166.48134142971134
        },
        "sites": [
            {
                "species": [
                    {
                        "element": "V",
                        "occu": 1
                    }
                ],
                "abc": [
                    0.63864858,
                    0.36135142,
                    0.25
                ],
                "xyz": [
                    2.89745154,
                    -1.1911402856451534,
                    1.67202169
                ],
                "label": "V",
                "properties": {}
            },
            {
                "species": [
                    {
                        "element": "V",
                        "occu": 1
                    }
                ],
                "abc": [
                    0.36135142,
                    0.63864858,
                    0.75
                ],
                "xyz": [
                    2.89745154,
                    1.1911402856451534,
                    5.01606507
                ],
                "label": "V",
                "properties": {}
            },
            {
                "species": [
                    {
                        "element": "In",
                        "occu": 1
                    }
                ],
                "abc": [
                    0.0,
                    0.0,
                    0.5
                ],
                "xyz": [
                    0.0,
                    0.0,
                    3.34404338
                ],
                "label": "In",
                "properties": {}
            },
            {
                "species": [
                    {
                        "element": "In",
                        "occu": 1
                    }
                ],
                "abc": [
                    0.0,
                    0.0,
                    0.0
                ],
                "xyz": [
                    0.0,
                    0.0,
                    0.0
                ],
                "label": "In",
                "properties": {}
            },
            {
                "species": [
                    {
                        "element": "O",
                        "occu": 1
                    }
                ],
                "abc": [
                    0.24983577,
                    0.75016423,
                    0.54455715
                ],
                "xyz": [
                    2.89745154,
                    2.1491795471717037,
                    3.6420454649783345
                ],
                "label": "O",
                "properties": {}
            },
            {
                "species": [
                    {
                        "element": "O",
                        "occu": 1
                    }
                ],
                "abc": [
                    0.75016423,
                    0.24983577,
                    0.04455715
                ],
                "xyz": [
                    2.89745154,
                    -2.1491795471717037,
                    0.29800208497833397
                ],
                "label": "O",
                "properties": {}
            },
            {
                "species": [
                    {
                        "element": "O",
                        "occu": 1
                    }
                ],
                "abc": [
                    0.75016423,
                    0.24983577,
                    0.45544285
                ],
                "xyz": [
                    2.89745154,
                    -2.1491795471717037,
                    3.046041295021666
                ],
                "label": "O",
                "properties": {}
            },
            {
                "species": [
                    {
                        "element": "O",
                        "occu": 1
                    }
                ],
                "abc": [
                    0.24983577,
                    0.75016423,
                    0.95544285
                ],
                "xyz": [
                    2.89745154,
                    2.1491795471717037,
                    6.390084675021666
                ],
                "label": "O",
                "properties": {}
            },
            {
                "species": [
                    {
                        "element": "O",
                        "occu": 1
                    }
                ],
                "abc": [
                    0.73378869,
                    0.78062265,
                    0.75
                ],
                "xyz": [
                    4.387933469276463,
                    0.20117702068168875,
                    5.01606507
                ],
                "label": "O",
                "properties": {}
            },
            {
                "species": [
                    {
                        "element": "O",
                        "occu": 1
                    }
                ],
                "abc": [
                    0.26621131,
                    0.21937735,
                    0.25
                ],
                "xyz": [
                    1.4069696107235363,
                    -0.20117702068168908,
                    1.67202169
                ],
                "label": "O",
                "properties": {}
            },
            {
                "species": [
                    {
                        "element": "O",
                        "occu": 1
                    }
                ],
                "abc": [
                    0.78062265,
                    0.73378869,
                    0.25
                ],
                "xyz": [
                    4.387933469276463,
                    -0.20117702068168875,
                    1.67202169
                ],
                "label": "O",
                "properties": {}
            },
            {
                "species": [
                    {
                        "element": "O",
                        "occu": 1
                    }
                ],
                "abc": [
                    0.21937735,
                    0.26621131,
                    0.75
                ],
                "xyz": [
                    1.4069696107235363,
                    0.20117702068168908,
                    5.01606507
                ],
                "label": "O",
                "properties": {}
            }
        ]
    },
    "spacegroup": {
        "source": "spglib",
        "symbol": "Cmcm",
        "number": 63,
        "point_group": "mmm",
        "crystal_system": "orthorhombic",
        "hall": "-C 2c 2"
    },
    "dielectric": {
        "epsilon_ionic": [
            [
                6.36828099,
                5e-08,
                -0.0
            ],
            [
                5e-08,
                4.09368788,
                1e-08
            ],
            [
                -0.0,
                1e-08,
                3.92339703
            ]
        ],
        "epsilon_ionic_avg": 4.795121966666666,
        "epsilon_ionic_eig": [
            6.3682809900000015,
            4.093687879999999,
            3.923397029999999
        ],
        "epsilon_electronic": [
            [
                4.23643006,
                0.0,
                0.0
            ],
            [
                0.0,
                3.92300644,
                -0.0
            ],
            [
                0.0,
                -0.0,
                3.90058706
            ]
        ],
        "epsilon_electronic_avg": 4.020007853333333,
        "epsilon_electronic_eig": [
            4.23643006,
            3.92300644,
            3.90058706
        ]
    },
    "phonon": {
        "lowest_freq": -0.045104990499702576,
        "frequency": [
            -0.045104990499702576,
            -0.030414325391109588,
            -0.028926265654743263,
            2.9570872786876325,
            3.25792457209013,
            3.8473197943926762,
            4.0958725760774035,
            4.275797623153258,
            4.673148046844606,
            5.9383847616848096,
            6.02287690789591,
            6.539310962040462,
            6.8798917964382555,
            7.233571947640991,
            7.8452084176719525,
            8.098228677825304,
            9.752480799464418,
            9.874739648754222,
            10.401387377443735,
            10.539594342723118,
            11.080875502855111,
            11.131256356527722,
            11.345480079819168,
            11.84659168168905,
            12.014075362091381,
            13.450167918764155,
            13.651384243284076,
            13.665430282699152,
            19.766187004157832,
            20.55818206721867,
            22.69622701540587,
            22.818364385997114,
            26.218462243640076,
            26.577041013349884,
            27.009731104576407,
            27.322632297628676
        ]
    },
    "born_effective_charge": {
        "avg_abs_trace": 2.497923333333333,
        "tensors": [
            [
                [
                    4.10318,
                    0.0004,
                    0.0
                ],
                [
                    0.0,
                    3.42078,
                    -0.0
                ],
                [
                    -0.0,
                    -0.00027,
                    3.21061
                ]
            ],
            [
                [
                    4.10318,
                    -0.0004,
                    0.0
                ],
                [
                    0.0,
                    3.42098,
                    -0.0
                ],
                [
                    -0.0,
                    0.00027,
                    3.21061
                ]
            ],
            [
                [
                    4.10455,
                    -0.0,
                    0.0
                ],
                [
                    0.0,
                    3.96631,
                    1.16153
                ],
                [
                    -0.0,
                    -1.03418,
                    3.67578
                ]
            ],
            [
                [
                    4.10455,
                    -0.0,
                    0.0
                ],
                [
                    0.0,
                    3.96631,
                    -1.16153
                ],
                [
                    -0.0,
                    1.03418,
                    3.67578
                ]
            ],
            [
                [
                    -0.68621,
                    5e-05,
                    -1e-05
                ],
                [
                    0.0,
                    -2.11361,
                    1.05033
                ],
                [
                    -0.0,
                    1.37987,
                    -1.97582
                ]
            ],
            [
                [
                    -0.68621,
                    -5e-05,
                    -1e-05
                ],
                [
                    0.0,
                    -2.11347,
                    -1.04971
                ],
                [
                    -0.0,
                    -1.37987,
                    -1.97582
                ]
            ],
            [
                [
                    -0.68621,
                    -5e-05,
                    1e-05
                ],
                [
                    0.0,
                    -2.11347,
                    1.04971
                ],
                [
                    -0.0,
                    1.37995,
                    -1.97602
                ]
            ],
            [
                [
                    -0.68621,
                    5e-05,
                    1e-05
                ],
                [
                    0.0,
                    -2.11361,
                    -1.05033
                ],
                [
                    -0.0,
                    -1.37995,
                    -1.97602
                ]
            ],
            [
                [
                    -3.41745,
                    1.3041,
                    0.0
                ],
                [
                    1.27819,
                    -1.58,
                    -0.0
                ],
                [
                    0.00013,
                    -9e-05,
                    -1.46728
                ]
            ],
            [
                [
                    -3.41785,
                    1.30366,
                    0.0
                ],
                [
                    1.27759,
                    -1.58011,
                    -0.0
                ],
                [
                    -0.00013,
                    9e-05,
                    -1.46728
                ]
            ],
            [
                [
                    -3.41745,
                    -1.3041,
                    0.0
                ],
                [
                    -1.27759,
                    -1.58011,
                    -0.0
                ],
                [
                    0.00013,
                    9e-05,
                    -1.46728
                ]
            ],
            [
                [
                    -3.41785,
                    -1.30366,
                    0.0
                ],
                [
                    -1.27819,
                    -1.58,
                    -0.0
                ],
                [
                    -0.00013,
                    -9e-05,
                    -1.46728
                ]
            ]
        ]
    },
    "band_gap": 2.9970999999999997,
    "is_direct": false,
    "formula": "VInO4"
}