{
    "mp_id": "mp-20564",
    "nelements": 3,
    "nsites": 26,
    "elements": [
        "O",
        "Pb",
        "V"
    ],
    "structure": {
        "@module": "pymatgen.core.structure",
        "@class": "Structure",
        "charge": null,
        "lattice": {
            "matrix": [
                [
                    7.35468734,
                    0.0,
                    -0.0052191
                ],
                [
                    0.0,
                    6.37462472,
                    0.0
                ],
                [
                    -3.87781685,
                    0.0,
                    8.42097115
                ]
            ],
            "a": 7.354689191812328,
            "b": 6.37462472,
            "c": 9.270934075446565,
            "alpha": 90.0,
            "beta": 114.76650257116144,
            "gamma": 90.0,
            "volume": 394.67450650854704
        },
        "sites": [
            {
                "species": [
                    {
                        "element": "V",
                        "occu": 1
                    }
                ],
                "abc": [
                    0.7959149,
                    0.48374704,
                    0.0962
                ],
                "xyz": [
                    5.480659257777366,
                    3.083705839410829,
                    0.8059434651754099
                ],
                "label": "V",
                "properties": {}
            },
            {
                "species": [
                    {
                        "element": "V",
                        "occu": 1
                    }
                ],
                "abc": [
                    0.2040851,
                    0.98374704,
                    0.4038
                ],
                "xyz": [
                    -0.0648803427773661,
                    6.271018199410829,
                    3.39932300982459
                ],
                "label": "V",
                "properties": {}
            },
            {
                "species": [
                    {
                        "element": "V",
                        "occu": 1
                    }
                ],
                "abc": [
                    0.2040851,
                    0.51625296,
                    0.9038
                ],
                "xyz": [
                    -2.0037887677773663,
                    3.290918880589171,
                    7.609808584824591
                ],
                "label": "V",
                "properties": {}
            },
            {
                "species": [
                    {
                        "element": "V",
                        "occu": 1
                    }
                ],
                "abc": [
                    0.7959149,
                    0.01625296,
                    0.5962
                ],
                "xyz": [
                    3.5417508327773657,
                    0.1036065205891712,
                    5.016429040175409
                ],
                "label": "V",
                "properties": {}
            },
            {
                "species": [
                    {
                        "element": "Pb",
                        "occu": 1
                    }
                ],
                "abc": [
                    0.60699131,
                    0.8965036,
                    0.20684359
                ],
                "xyz": [
                    3.6621297445305236,
                    5.714874010128992,
                    1.7386559556064074
                ],
                "label": "Pb",
                "properties": {}
            },
            {
                "species": [
                    {
                        "element": "Pb",
                        "occu": 1
                    }
                ],
                "abc": [
                    0.39300869,
                    0.3965036,
                    0.29315641
                ],
                "xyz": [
                    1.753649170469476,
                    2.527561650128992,
                    2.4666105193935923
                ],
                "label": "Pb",
                "properties": {}
            },
            {
                "species": [
                    {
                        "element": "Pb",
                        "occu": 1
                    }
                ],
                "abc": [
                    0.39300869,
                    0.1034964,
                    0.79315641
                ],
                "xyz": [
                    -0.18525925453052405,
                    0.659750709871008,
                    6.677096094393592
                ],
                "label": "Pb",
                "properties": {}
            },
            {
                "species": [
                    {
                        "element": "Pb",
                        "occu": 1
                    }
                ],
                "abc": [
                    0.60699131,
                    0.6034964,
                    0.70684359
                ],
                "xyz": [
                    1.7232213195305235,
                    3.8470630698710084,
                    5.949141530606408
                ],
                "label": "Pb",
                "properties": {}
            },
            {
                "species": [
                    {
                        "element": "Pb",
                        "occu": 1
                    }
                ],
                "abc": [
                    0.0,
                    0.5,
                    0.5
                ],
                "xyz": [
                    -1.938908425,
                    3.18731236,
                    4.210485575
                ],
                "label": "Pb",
                "properties": {}
            },
            {
                "species": [
                    {
                        "element": "Pb",
                        "occu": 1
                    }
                ],
                "abc": [
                    0.0,
                    0.0,
                    0.0
                ],
                "xyz": [
                    0.0,
                    0.0,
                    0.0
                ],
                "label": "Pb",
                "properties": {}
            },
            {
                "species": [
                    {
                        "element": "O",
                        "occu": 1
                    }
                ],
                "abc": [
                    0.04017735,
                    0.46366701,
                    0.22895149
                ],
                "xyz": [
                    -0.5923400983548575,
                    2.955703183794487,
                    1.9277842024321283
                ],
                "label": "O",
                "properties": {}
            },
            {
                "species": [
                    {
                        "element": "O",
                        "occu": 1
                    }
                ],
                "abc": [
                    0.95982265,
                    0.96366701,
                    0.27104851
                ],
                "xyz": [
                    6.008119013354857,
                    6.143015543794487,
                    2.277482272567872
                ],
                "label": "O",
                "properties": {}
            },
            {
                "species": [
                    {
                        "element": "O",
                        "occu": 1
                    }
                ],
                "abc": [
                    0.95982265,
                    0.53633299,
                    0.77104851
                ],
                "xyz": [
                    4.069210588354858,
                    3.418921536205513,
                    6.48796784756787
                ],
                "label": "O",
                "properties": {}
            },
            {
                "species": [
                    {
                        "element": "O",
                        "occu": 1
                    }
                ],
                "abc": [
                    0.04017735,
                    0.03633299,
                    0.72895149
                ],
                "xyz": [
                    -2.531248523354858,
                    0.2316091762055128,
                    6.138269777432129
                ],
                "label": "O",
                "properties": {}
            },
            {
                "species": [
                    {
                        "element": "O",
                        "occu": 1
                    }
                ],
                "abc": [
                    0.66476665,
                    0.52290572,
                    0.21401394
                ],
                "xyz": [
                    4.0592440021423215,
                    3.3333277289413985,
                    1.7987357308148162
                ],
                "label": "O",
                "properties": {}
            },
            {
                "species": [
                    {
                        "element": "O",
                        "occu": 1
                    }
                ],
                "abc": [
                    0.33523335,
                    0.02290572,
                    0.28598606
                ],
                "xyz": [
                    1.3565349128576778,
                    0.1460153689413984,
                    2.406530744185184
                ],
                "label": "O",
                "properties": {}
            },
            {
                "species": [
                    {
                        "element": "O",
                        "occu": 1
                    }
                ],
                "abc": [
                    0.33523335,
                    0.47709428,
                    0.78598606
                ],
                "xyz": [
                    -0.5823735121423224,
                    3.0412969910586014,
                    6.617016319185184
                ],
                "label": "O",
                "properties": {}
            },
            {
                "species": [
                    {
                        "element": "O",
                        "occu": 1
                    }
                ],
                "abc": [
                    0.66476665,
                    0.97709428,
                    0.71401394
                ],
                "xyz": [
                    2.1203355771423222,
                    6.228609351058601,
                    6.009221305814815
                ],
                "label": "O",
                "properties": {}
            },
            {
                "species": [
                    {
                        "element": "O",
                        "occu": 1
                    }
                ],
                "abc": [
                    0.74919281,
                    0.70764923,
                    0.97610212
                ],
                "xyz": [
                    1.724933626669304,
                    4.5109982746469655,
                    8.215817679779168
                ],
                "label": "O",
                "properties": {}
            },
            {
                "species": [
                    {
                        "element": "O",
                        "occu": 1
                    }
                ],
                "abc": [
                    0.25080719,
                    0.20764923,
                    0.52389788
                ],
                "xyz": [
                    -0.1869715616693035,
                    1.3236859146469655,
                    4.410419945220833
                ],
                "label": "O",
                "properties": {}
            },
            {
                "species": [
                    {
                        "element": "O",
                        "occu": 1
                    }
                ],
                "abc": [
                    0.72571744,
                    0.23340032,
                    0.47494556
                ],
                "xyz": [
                    3.4956729729845235,
                    1.4878394495279104,
                    3.9957152666894897
                ],
                "label": "O",
                "properties": {}
            },
            {
                "species": [
                    {
                        "element": "O",
                        "occu": 1
                    }
                ],
                "abc": [
                    0.27428256,
                    0.73340032,
                    0.02505444
                ],
                "xyz": [
                    1.9201059420154765,
                    4.67515180952791,
                    0.20955120831051
                ],
                "label": "O",
                "properties": {}
            },
            {
                "species": [
                    {
                        "element": "O",
                        "occu": 1
                    }
                ],
                "abc": [
                    0.27428256,
                    0.76659968,
                    0.52505444
                ],
                "xyz": [
                    -0.018802482984523472,
                    4.88678527047209,
                    4.42003678331051
                ],
                "label": "O",
                "properties": {}
            },
            {
                "species": [
                    {
                        "element": "O",
                        "occu": 1
                    }
                ],
                "abc": [
                    0.72571744,
                    0.26659968,
                    0.97494556
                ],
                "xyz": [
                    1.5567645479845238,
                    1.6994729104720896,
                    8.206200841689489
                ],
                "label": "O",
                "properties": {}
            },
            {
                "species": [
                    {
                        "element": "O",
                        "occu": 1
                    }
                ],
                "abc": [
                    0.74919281,
                    0.79235077,
                    0.47610212
                ],
                "xyz": [
                    3.6638420516693038,
                    5.050938805353034,
                    4.005332104779168
                ],
                "label": "O",
                "properties": {}
            },
            {
                "species": [
                    {
                        "element": "O",
                        "occu": 1
                    }
                ],
                "abc": [
                    0.25080719,
                    0.29235077,
                    0.02389788
                ],
                "xyz": [
                    1.7519368633306966,
                    1.8636264453530342,
                    0.199934370220833
                ],
                "label": "O",
                "properties": {}
            }
        ]
    },
    "spacegroup": {
        "source": "spglib",
        "symbol": "P2_1/c",
        "number": 14,
        "point_group": "2/m",
        "crystal_system": "monoclinic",
        "hall": "-P 2ybc"
    },
    "dielectric": {
        "epsilon_ionic": [
            [
                32.50836226,
                6e-08,
                3.80477967
            ],
            [
                6e-08,
                14.34697889,
                1e-07
            ],
            [
                3.80477967,
                1e-07,
                25.74034784
            ]
        ],
        "epsilon_ionic_avg": 24.198562996666666,
        "epsilon_ionic_eig": [
            34.216295066789,
            24.032415033211,
            14.346978890000003
        ],
        "epsilon_electronic": [
            [
                5.41664358,
                0.0,
                0.08909461
            ],
            [
                0.0,
                5.30784112,
                0.0
            ],
            [
                0.08910234,
                0.0,
                5.96677274
            ]
        ],
        "epsilon_electronic_avg": 5.563752479999999,
        "epsilon_electronic_eig": [
            5.402573137211401,
            5.980843182788599,
            5.30784112
        ]
    },
    "phonon": {
        "lowest_freq": -0.08961073849467173,
        "frequency": [
            -0.08961073849467173,
            -0.046681099744993765,
            -0.01887633946348462,
            1.0266918697133203,
            1.1157294689198567,
            1.2983420463038424,
            1.4734080238060003,
            1.5275292128336586,
            1.5437781135876434,
            1.618626588193646,
            1.70996280468637,
            1.880050407824912,
            1.8991746366428486,
            2.054779936750916,
            2.1475860887505243,
            2.2101700281040886,
            2.3342814559739056,
            2.568941379568519,
            2.5973850985096023,
            2.742363816850251,
            3.0343785845072624,
            3.1943166377260805,
            3.291062533573097,
            3.300239525194411,
            3.6149857437594326,
            3.748368034080743,
            3.879969890202142,
            3.962049569563862,
            4.309366888026342,
            4.419376687939057,
            4.687802743210879,
            4.701801996807153,
            4.7235386230990875,
            4.88493101913601,
            4.887105556914432,
            5.361323618568895,
            6.110037682693228,
            6.13636399807731,
            6.24406935969965,
            6.375766317710922,
            6.643136279879345,
            6.7567574342846735,
            8.211729454128934,
            8.312742318211978,
            8.507278091711942,
            8.695317506243123,
            9.050409760539218,
            9.260762471898563,
            9.424214252638045,
            9.535106253072694,
            9.783923933854293,
            9.800466076409663,
            9.852719668735444,
            10.030931165856828,
            10.386823602913603,
            10.434767874833344,
            10.533382353240983,
            10.916895875808923,
            10.927839998765155,
            10.964278786677085,
            11.680235600382776,
            12.210158117004113,
            21.25162127808857,
            21.478110412590702,
            21.818664296246915,
            22.068770079431257,
            22.391443601546985,
            22.454491417034593,
            22.475929453965634,
            22.82461733290645,
            23.00400814341889,
            23.678715806473015,
            23.81042202664745,
            24.014519509994173,
            24.498683250135244,
            24.782865894110284,
            25.367930970015657,
            25.382450251378735
        ]
    },
    "born_effective_charge": {
        "avg_abs_trace": 2.841931025641026,
        "tensors": [
            [
                [
                    3.26942,
                    -0.07393,
                    -0.07765
                ],
                [
                    -0.58632,
                    3.73063,
                    0.22841
                ],
                [
                    0.10946,
                    -0.06444,
                    4.21887
                ]
            ],
            [
                [
                    3.26958,
                    0.07404,
                    -0.07741
                ],
                [
                    0.58632,
                    3.73063,
                    -0.22841
                ],
                [
                    0.10944,
                    0.06385,
                    4.21847
                ]
            ],
            [
                [
                    3.26958,
                    -0.07404,
                    -0.07741
                ],
                [
                    -0.58573,
                    3.72967,
                    0.22844
                ],
                [
                    0.10944,
                    -0.06385,
                    4.21847
                ]
            ],
            [
                [
                    3.26942,
                    0.07393,
                    -0.07765
                ],
                [
                    0.58573,
                    3.72967,
                    -0.22844
                ],
                [
                    0.10946,
                    0.06444,
                    4.21887
                ]
            ],
            [
                [
                    4.34394,
                    -0.40377,
                    0.31969
                ],
                [
                    0.10446,
                    2.9589,
                    0.71641
                ],
                [
                    0.61126,
                    0.63767,
                    3.73308
                ]
            ],
            [
                [
                    4.34416,
                    0.40391,
                    0.31963
                ],
                [
                    -0.10446,
                    2.9589,
                    -0.71641
                ],
                [
                    0.61128,
                    -0.63801,
                    3.73285
                ]
            ],
            [
                [
                    4.34416,
                    -0.40391,
                    0.31963
                ],
                [
                    0.1045,
                    2.95891,
                    0.71639
                ],
                [
                    0.61128,
                    0.63801,
                    3.73285
                ]
            ],
            [
                [
                    4.34394,
                    0.40377,
                    0.31969
                ],
                [
                    -0.1045,
                    2.95891,
                    -0.71639
                ],
                [
                    0.61126,
                    -0.63767,
                    3.73308
                ]
            ],
            [
                [
                    3.31046,
                    0.05394,
                    0.01298
                ],
                [
                    0.0598,
                    3.86227,
                    0.03263
                ],
                [
                    -0.72642,
                    0.04782,
                    3.73645
                ]
            ],
            [
                [
                    3.31046,
                    -0.05394,
                    0.01298
                ],
                [
                    -0.0598,
                    3.86227,
                    -0.03263
                ],
                [
                    -0.72642,
                    -0.04782,
                    3.73645
                ]
            ],
            [
                [
                    -3.15378,
                    0.33162,
                    -1.27075
                ],
                [
                    0.64191,
                    -0.67317,
                    0.30585
                ],
                [
                    -1.53035,
                    0.17262,
                    -2.5495
                ]
            ],
            [
                [
                    -3.15415,
                    -0.33165,
                    -1.27106
                ],
                [
                    -0.64191,
                    -0.67317,
                    -0.30585
                ],
                [
                    -1.52987,
                    -0.17241,
                    -2.54892
                ]
            ],
            [
                [
                    -3.15415,
                    0.33165,
                    -1.27106
                ],
                [
                    0.64154,
                    -0.67333,
                    0.30522
                ],
                [
                    -1.52987,
                    0.17241,
                    -2.54892
                ]
            ],
            [
                [
                    -3.15378,
                    -0.33162,
                    -1.27075
                ],
                [
                    -0.64154,
                    -0.67333,
                    -0.30522
                ],
                [
                    -1.53035,
                    -0.17262,
                    -2.5495
                ]
            ],
            [
                [
                    -3.41242,
                    0.39814,
                    1.229
                ],
                [
                    0.46722,
                    -1.71274,
                    -0.26928
                ],
                [
                    1.40061,
                    -0.27378,
                    -2.12361
                ]
            ],
            [
                [
                    -3.4126,
                    -0.39826,
                    1.2291
                ],
                [
                    -0.46722,
                    -1.71274,
                    0.26928
                ],
                [
                    1.40038,
                    0.27381,
                    -2.12351
                ]
            ],
            [
                [
                    -3.4126,
                    0.39826,
                    1.2291
                ],
                [
                    0.46666,
                    -1.71274,
                    -0.26904
                ],
                [
                    1.40038,
                    -0.27381,
                    -2.12351
                ]
            ],
            [
                [
                    -3.41242,
                    -0.39814,
                    1.229
                ],
                [
                    -0.46666,
                    -1.71274,
                    0.26904
                ],
                [
                    1.40061,
                    0.27378,
                    -2.12361
                ]
            ],
            [
                [
                    -1.19019,
                    -0.48822,
                    0.25439
                ],
                [
                    -0.63693,
                    -3.01905,
                    1.14153
                ],
                [
                    0.27063,
                    1.14456,
                    -2.97211
                ]
            ],
            [
                [
                    -1.19029,
                    0.488,
                    0.25467
                ],
                [
                    0.63693,
                    -3.01905,
                    -1.14153
                ],
                [
                    0.27075,
                    -1.14386,
                    -2.97182
                ]
            ],
            [
                [
                    -1.51207,
                    -0.0438,
                    -0.46123
                ],
                [
                    -0.1564,
                    -3.21487,
                    1.32583
                ],
                [
                    -0.49847,
                    1.76841,
                    -2.17493
                ]
            ],
            [
                [
                    -1.51206,
                    0.04361,
                    -0.46136
                ],
                [
                    0.1564,
                    -3.21487,
                    -1.32583
                ],
                [
                    -0.4987,
                    -1.76864,
                    -2.17532
                ]
            ],
            [
                [
                    -1.51206,
                    -0.04361,
                    -0.46136
                ],
                [
                    -0.1561,
                    -3.21507,
                    1.32587
                ],
                [
                    -0.4987,
                    1.76864,
                    -2.17532
                ]
            ],
            [
                [
                    -1.51207,
                    0.0438,
                    -0.46123
                ],
                [
                    0.1561,
                    -3.21507,
                    -1.32587
                ],
                [
                    -0.49847,
                    -1.76841,
                    -2.17493
                ]
            ],
            [
                [
                    -1.19019,
                    0.48822,
                    0.25439
                ],
                [
                    0.637,
                    -3.0194,
                    -1.1419
                ],
                [
                    0.27063,
                    -1.14456,
                    -2.97211
                ]
            ],
            [
                [
                    -1.19029,
                    -0.488,
                    0.25467
                ],
                [
                    -0.637,
                    -3.0194,
                    1.1419
                ],
                [
                    0.27075,
                    1.14386,
                    -2.97182
                ]
            ]
        ]
    },
    "band_gap": 2.8737,
    "is_direct": false,
    "formula": "V2Pb3O8"
}