{
    "mp_id": "mp-27250",
    "nelements": 3,
    "nsites": 24,
    "elements": [
        "Cs",
        "O",
        "Tc"
    ],
    "structure": {
        "@module": "pymatgen.core.structure",
        "@class": "Structure",
        "charge": null,
        "lattice": {
            "matrix": [
                [
                    5.66561986,
                    0.0,
                    0.0
                ],
                [
                    0.0,
                    5.89112101,
                    0.0
                ],
                [
                    0.0,
                    0.0,
                    14.27577476
                ]
            ],
            "a": 5.66561986,
            "b": 5.89112101,
            "c": 14.27577476,
            "alpha": 90.0,
            "beta": 90.0,
            "gamma": 90.0,
            "volume": 476.48042408965154
        },
        "sites": [
            {
                "species": [
                    {
                        "element": "Cs",
                        "occu": 1
                    }
                ],
                "abc": [
                    0.47531634,
                    0.75,
                    0.62786079
                ],
                "xyz": [
                    2.6929616956865123,
                    4.4183407575,
                    8.963199218675658
                ],
                "label": "Cs",
                "properties": {}
            },
            {
                "species": [
                    {
                        "element": "Cs",
                        "occu": 1
                    }
                ],
                "abc": [
                    0.97531634,
                    0.75,
                    0.87213921
                ],
                "xyz": [
                    5.525771625686512,
                    4.4183407575,
                    12.45046292132434
                ],
                "label": "Cs",
                "properties": {}
            },
            {
                "species": [
                    {
                        "element": "Cs",
                        "occu": 1
                    }
                ],
                "abc": [
                    0.52468366,
                    0.25,
                    0.37213921
                ],
                "xyz": [
                    2.9726581643134873,
                    1.4727802525,
                    5.312575541324339
                ],
                "label": "Cs",
                "properties": {}
            },
            {
                "species": [
                    {
                        "element": "Cs",
                        "occu": 1
                    }
                ],
                "abc": [
                    0.02468366,
                    0.25,
                    0.12786079
                ],
                "xyz": [
                    0.13984823431348758,
                    1.4727802525,
                    1.8253118386756604
                ],
                "label": "Cs",
                "properties": {}
            },
            {
                "species": [
                    {
                        "element": "Tc",
                        "occu": 1
                    }
                ],
                "abc": [
                    0.54188124,
                    0.75,
                    0.11860484
                ],
                "xyz": [
                    3.0700931151054265,
                    4.4183407575,
                    1.6931759812858382
                ],
                "label": "Tc",
                "properties": {}
            },
            {
                "species": [
                    {
                        "element": "Tc",
                        "occu": 1
                    }
                ],
                "abc": [
                    0.04188124,
                    0.75,
                    0.38139516
                ],
                "xyz": [
                    0.2372831851054264,
                    4.4183407575,
                    5.444711398714161
                ],
                "label": "Tc",
                "properties": {}
            },
            {
                "species": [
                    {
                        "element": "Tc",
                        "occu": 1
                    }
                ],
                "abc": [
                    0.45811876,
                    0.25,
                    0.88139516
                ],
                "xyz": [
                    2.5955267448945736,
                    1.4727802525,
                    12.58259877871416
                ],
                "label": "Tc",
                "properties": {}
            },
            {
                "species": [
                    {
                        "element": "Tc",
                        "occu": 1
                    }
                ],
                "abc": [
                    0.95811876,
                    0.25,
                    0.61860484
                ],
                "xyz": [
                    5.428336674894573,
                    1.4727802525,
                    8.831063361285839
                ],
                "label": "Tc",
                "properties": {}
            },
            {
                "species": [
                    {
                        "element": "O",
                        "occu": 1
                    }
                ],
                "abc": [
                    0.49059637,
                    0.98558222,
                    0.1839649
                ],
                "xyz": [
                    2.779532537115908,
                    5.806184123324442,
                    2.626241476145924
                ],
                "label": "O",
                "properties": {}
            },
            {
                "species": [
                    {
                        "element": "O",
                        "occu": 1
                    }
                ],
                "abc": [
                    0.99059637,
                    0.51441778,
                    0.3160351
                ],
                "xyz": [
                    5.612342467115908,
                    3.030497391675558,
                    4.511645903854076
                ],
                "label": "O",
                "properties": {}
            },
            {
                "species": [
                    {
                        "element": "O",
                        "occu": 1
                    }
                ],
                "abc": [
                    0.50940363,
                    0.48558222,
                    0.8160351
                ],
                "xyz": [
                    2.8860873228840918,
                    2.8606236183244422,
                    11.649533283854076
                ],
                "label": "O",
                "properties": {}
            },
            {
                "species": [
                    {
                        "element": "O",
                        "occu": 1
                    }
                ],
                "abc": [
                    0.00940363,
                    0.01441778,
                    0.6839649
                ],
                "xyz": [
                    0.05327739288409179,
                    0.0849368866755578,
                    9.764128856145923
                ],
                "label": "O",
                "properties": {}
            },
            {
                "species": [
                    {
                        "element": "O",
                        "occu": 1
                    }
                ],
                "abc": [
                    0.50940363,
                    0.01441778,
                    0.8160351
                ],
                "xyz": [
                    2.8860873228840918,
                    0.0849368866755578,
                    11.649533283854076
                ],
                "label": "O",
                "properties": {}
            },
            {
                "species": [
                    {
                        "element": "O",
                        "occu": 1
                    }
                ],
                "abc": [
                    0.00940363,
                    0.48558222,
                    0.6839649
                ],
                "xyz": [
                    0.05327739288409179,
                    2.8606236183244422,
                    9.764128856145923
                ],
                "label": "O",
                "properties": {}
            },
            {
                "species": [
                    {
                        "element": "O",
                        "occu": 1
                    }
                ],
                "abc": [
                    0.49059637,
                    0.51441778,
                    0.1839649
                ],
                "xyz": [
                    2.779532537115908,
                    3.030497391675558,
                    2.626241476145924
                ],
                "label": "O",
                "properties": {}
            },
            {
                "species": [
                    {
                        "element": "O",
                        "occu": 1
                    }
                ],
                "abc": [
                    0.99059637,
                    0.98558222,
                    0.3160351
                ],
                "xyz": [
                    5.612342467115908,
                    5.806184123324442,
                    4.511645903854076
                ],
                "label": "O",
                "properties": {}
            },
            {
                "species": [
                    {
                        "element": "O",
                        "occu": 1
                    }
                ],
                "abc": [
                    0.17156091,
                    0.25,
                    0.91750738
                ],
                "xyz": [
                    0.9719988988956726,
                    1.4727802525,
                    13.098128697517728
                ],
                "label": "O",
                "properties": {}
            },
            {
                "species": [
                    {
                        "element": "O",
                        "occu": 1
                    }
                ],
                "abc": [
                    0.67156091,
                    0.25,
                    0.58249262
                ],
                "xyz": [
                    3.804808828895672,
                    1.4727802525,
                    8.315533442482272
                ],
                "label": "O",
                "properties": {}
            },
            {
                "species": [
                    {
                        "element": "O",
                        "occu": 1
                    }
                ],
                "abc": [
                    0.82843909,
                    0.75,
                    0.08249262
                ],
                "xyz": [
                    4.693620961104327,
                    4.4183407575,
                    1.177646062482271
                ],
                "label": "O",
                "properties": {}
            },
            {
                "species": [
                    {
                        "element": "O",
                        "occu": 1
                    }
                ],
                "abc": [
                    0.32843909,
                    0.75,
                    0.41750738
                ],
                "xyz": [
                    1.860811031104327,
                    4.4183407575,
                    5.9602413175177285
                ],
                "label": "O",
                "properties": {}
            },
            {
                "species": [
                    {
                        "element": "O",
                        "occu": 1
                    }
                ],
                "abc": [
                    0.64042073,
                    0.25,
                    0.97541378
                ],
                "xyz": [
                    3.6283804066436973,
                    1.4727802525,
                    13.924787421080191
                ],
                "label": "O",
                "properties": {}
            },
            {
                "species": [
                    {
                        "element": "O",
                        "occu": 1
                    }
                ],
                "abc": [
                    0.14042073,
                    0.25,
                    0.52458622
                ],
                "xyz": [
                    0.7955704766436977,
                    1.4727802525,
                    7.488874718919806
                ],
                "label": "O",
                "properties": {}
            },
            {
                "species": [
                    {
                        "element": "O",
                        "occu": 1
                    }
                ],
                "abc": [
                    0.35957927,
                    0.75,
                    0.02458622
                ],
                "xyz": [
                    2.0372394533563023,
                    4.4183407575,
                    0.35098733891980716
                ],
                "label": "O",
                "properties": {}
            },
            {
                "species": [
                    {
                        "element": "O",
                        "occu": 1
                    }
                ],
                "abc": [
                    0.85957927,
                    0.75,
                    0.47541378
                ],
                "xyz": [
                    4.870049383356302,
                    4.4183407575,
                    6.786900041080193
                ],
                "label": "O",
                "properties": {}
            }
        ]
    },
    "spacegroup": {
        "source": "spglib",
        "symbol": "Pnma",
        "number": 62,
        "point_group": "mmm",
        "crystal_system": "orthorhombic",
        "hall": "-P 2ac 2n"
    },
    "dielectric": {
        "epsilon_ionic": [
            [
                4.06350352,
                -6.053e-05,
                4.13e-06
            ],
            [
                -6.053e-05,
                4.08686642,
                -1.599e-05
            ],
            [
                4.13e-06,
                -1.599e-05,
                3.13275016
            ]
        ],
        "epsilon_ionic_avg": 3.761040033333335,
        "epsilon_ionic_eig": [
            4.0635033631942665,
            4.086866577092029,
            3.132750159713708
        ],
        "epsilon_electronic": [
            [
                2.79490288,
                -0.0,
                0.0
            ],
            [
                0.0,
                2.82865353,
                0.0
            ],
            [
                0.0,
                0.0,
                2.77223899
            ]
        ],
        "epsilon_electronic_avg": 2.798598466666667,
        "epsilon_electronic_eig": [
            2.79490288,
            2.82865353,
            2.77223899
        ]
    },
    "phonon": {
        "lowest_freq": -0.21217691061857566,
        "frequency": [
            -0.21217691061857566,
            -0.0779136533688274,
            -0.052167269053044175,
            0.819770670466273,
            0.8612227921151983,
            0.8678632387472995,
            0.9212890142455942,
            1.0344154532255188,
            1.0349405361198547,
            1.2036544829119655,
            1.3428681845616774,
            1.3746661865831529,
            1.4273020378556143,
            1.432657325027423,
            1.508260760532228,
            1.5736010348742668,
            1.7172405189557012,
            1.7974405070097268,
            1.8479584787619554,
            1.8652532809464053,
            1.9447087731140182,
            2.0809975571973034,
            2.241885751990566,
            2.270966555577076,
            2.3375939821332383,
            2.4092154304341653,
            2.420137556670289,
            2.472296316865709,
            2.4846113103609526,
            2.5670732942282877,
            2.650398100829158,
            2.67620289297203,
            2.767904529092116,
            2.7985947268073943,
            2.838373687648015,
            2.8855085251946804,
            9.75423596544255,
            9.811288095850893,
            9.813184579747734,
            9.833893499453204,
            9.885244175370506,
            9.900304364681345,
            9.927796392455745,
            9.953180770016962,
            10.031657388886075,
            10.052731369194865,
            10.190968050779661,
            10.207778984245982,
            10.213887758826093,
            10.371005363429125,
            10.524850122930548,
            10.532091592240697,
            10.543923687937273,
            10.576671168140242,
            10.579299917181416,
            10.616625526988624,
            25.099374493945962,
            25.106198147620166,
            25.14025723424132,
            25.18481399831265,
            25.21140236436974,
            25.256890413917453,
            25.59615204904734,
            25.63463410306615,
            25.693124184817616,
            26.116617101665327,
            26.3086453677204,
            26.402316650543348,
            26.403840363227953,
            26.417955309670553,
            26.56718940008043,
            26.857911556035315
        ]
    },
    "born_effective_charge": {
        "avg_abs_trace": 1.4810425,
        "tensors": [
            [
                [
                    1.46524,
                    -0.0,
                    -0.05023
                ],
                [
                    2e-05,
                    1.49411,
                    -5e-05
                ],
                [
                    -0.06916,
                    0.0,
                    1.48243
                ]
            ],
            [
                [
                    1.46524,
                    -0.0,
                    0.05023
                ],
                [
                    2e-05,
                    1.49411,
                    5e-05
                ],
                [
                    0.06913,
                    0.0,
                    1.4824
                ]
            ],
            [
                [
                    1.46534,
                    -0.0,
                    -0.05031
                ],
                [
                    -2e-05,
                    1.49411,
                    5e-05
                ],
                [
                    -0.06913,
                    0.0,
                    1.4824
                ]
            ],
            [
                [
                    1.46534,
                    -0.0,
                    0.05031
                ],
                [
                    -2e-05,
                    1.49411,
                    -5e-05
                ],
                [
                    0.06916,
                    0.0,
                    1.48243
                ]
            ],
            [
                [
                    2.93087,
                    -0.0,
                    -0.00407
                ],
                [
                    -0.00133,
                    3.00282,
                    0.00311
                ],
                [
                    -0.04532,
                    0.0,
                    2.95372
                ]
            ],
            [
                [
                    2.93087,
                    -0.0,
                    0.00407
                ],
                [
                    -0.00133,
                    3.00282,
                    -0.00311
                ],
                [
                    0.04579,
                    0.0,
                    2.95402
                ]
            ],
            [
                [
                    2.93087,
                    -0.0,
                    0.00108
                ],
                [
                    0.00133,
                    3.00282,
                    -0.00311
                ],
                [
                    -0.04579,
                    0.0,
                    2.95402
                ]
            ],
            [
                [
                    2.93087,
                    -0.0,
                    -0.00108
                ],
                [
                    0.00133,
                    3.00282,
                    0.00311
                ],
                [
                    0.04532,
                    0.0,
                    2.95372
                ]
            ],
            [
                [
                    -0.57625,
                    0.28351,
                    0.163
                ],
                [
                    0.29145,
                    -1.71265,
                    -0.83564
                ],
                [
                    0.16755,
                    -0.77804,
                    -1.08144
                ]
            ],
            [
                [
                    -0.57625,
                    -0.28351,
                    -0.163
                ],
                [
                    -0.29039,
                    -1.69993,
                    -0.8312
                ],
                [
                    -0.16779,
                    -0.77889,
                    -1.08211
                ]
            ],
            [
                [
                    -0.57465,
                    -0.2766,
                    0.15753
                ],
                [
                    -0.29145,
                    -1.71265,
                    0.83564
                ],
                [
                    0.16779,
                    0.77889,
                    -1.08211
                ]
            ],
            [
                [
                    -0.57465,
                    0.2766,
                    -0.15753
                ],
                [
                    0.29039,
                    -1.69993,
                    0.8312
                ],
                [
                    -0.16755,
                    0.77804,
                    -1.08144
                ]
            ],
            [
                [
                    -0.57465,
                    0.2766,
                    0.15753
                ],
                [
                    0.29039,
                    -1.69993,
                    -0.8312
                ],
                [
                    0.16779,
                    -0.77889,
                    -1.08211
                ]
            ],
            [
                [
                    -0.57465,
                    -0.2766,
                    -0.15753
                ],
                [
                    -0.29145,
                    -1.71265,
                    -0.83564
                ],
                [
                    -0.16755,
                    -0.77804,
                    -1.08144
                ]
            ],
            [
                [
                    -0.57625,
                    -0.28351,
                    0.163
                ],
                [
                    -0.29039,
                    -1.69993,
                    0.8312
                ],
                [
                    0.16755,
                    0.77804,
                    -1.08144
                ]
            ],
            [
                [
                    -0.57625,
                    0.28351,
                    -0.163
                ],
                [
                    0.29145,
                    -1.71265,
                    0.83564
                ],
                [
                    -0.16779,
                    0.77889,
                    -1.08211
                ]
            ],
            [
                [
                    -2.10993,
                    -0.0,
                    0.57081
                ],
                [
                    -0.00679,
                    -0.59055,
                    0.00266
                ],
                [
                    0.477,
                    0.0,
                    -0.7278
                ]
            ],
            [
                [
                    -2.10993,
                    -0.0,
                    -0.57081
                ],
                [
                    -0.00679,
                    -0.59055,
                    -0.00266
                ],
                [
                    -0.47503,
                    0.0,
                    -0.72745
                ]
            ],
            [
                [
                    -2.11398,
                    -0.0,
                    0.56826
                ],
                [
                    0.00679,
                    -0.59055,
                    -0.00266
                ],
                [
                    0.47503,
                    0.0,
                    -0.72745
                ]
            ],
            [
                [
                    -2.11398,
                    -0.0,
                    -0.56826
                ],
                [
                    0.00679,
                    -0.59055,
                    0.00266
                ],
                [
                    -0.477,
                    0.0,
                    -0.7278
                ]
            ],
            [
                [
                    -1.13835,
                    -0.0,
                    -0.88896
                ],
                [
                    0.00335,
                    -0.49381,
                    0.00515
                ],
                [
                    -0.84034,
                    0.0,
                    -1.54506
                ]
            ],
            [
                [
                    -1.13835,
                    -0.0,
                    0.88896
                ],
                [
                    0.00335,
                    -0.49381,
                    -0.00515
                ],
                [
                    0.84019,
                    0.0,
                    -1.54517
                ]
            ],
            [
                [
                    -1.12826,
                    -0.0,
                    -0.88015
                ],
                [
                    -0.00335,
                    -0.49381,
                    -0.00515
                ],
                [
                    -0.84019,
                    0.0,
                    -1.54517
                ]
            ],
            [
                [
                    -1.12826,
                    -0.0,
                    0.88015
                ],
                [
                    -0.00335,
                    -0.49381,
                    0.00515
                ],
                [
                    0.84034,
                    0.0,
                    -1.54506
                ]
            ]
        ]
    },
    "band_gap": 3.935,
    "is_direct": false,
    "formula": "CsTcO4"
}