{
    "mp_id": "mp-23018",
    "nelements": 3,
    "nsites": 12,
    "elements": [
        "Bi",
        "O",
        "Sb"
    ],
    "structure": {
        "@module": "pymatgen.core.structure",
        "@class": "Structure",
        "charge": null,
        "lattice": {
            "matrix": [
                [
                    5.99250205,
                    -2.47134972,
                    0.00191818
                ],
                [
                    5.99250205,
                    2.47134972,
                    0.00191818
                ],
                [
                    -1.50833739,
                    0.0,
                    5.27494709
                ]
            ],
            "a": 6.482102586137679,
            "b": 6.482102586137679,
            "c": 5.486360221893153,
            "alpha": 104.70693710047568,
            "beta": 104.70693710047568,
            "gamma": 44.82318405543349,
            "volume": 156.25367855751313
        },
        "sites": [
            {
                "species": [
                    {
                        "element": "Bi",
                        "occu": 1
                    }
                ],
                "abc": [
                    0.74656303,
                    0.25343697,
                    0.25
                ],
                "xyz": [
                    5.615417702499999,
                    -1.2186869503057034,
                    1.3206549525000002
                ],
                "label": "Bi",
                "properties": {}
            },
            {
                "species": [
                    {
                        "element": "Bi",
                        "occu": 1
                    }
                ],
                "abc": [
                    0.25343697,
                    0.74656303,
                    0.75
                ],
                "xyz": [
                    4.8612490075,
                    1.2186869503057034,
                    3.9581284975
                ],
                "label": "Bi",
                "properties": {}
            },
            {
                "species": [
                    {
                        "element": "Sb",
                        "occu": 1
                    }
                ],
                "abc": [
                    0.5,
                    0.0,
                    0.5
                ],
                "xyz": [
                    2.2420823299999997,
                    -1.23567486,
                    2.638432635
                ],
                "label": "Sb",
                "properties": {}
            },
            {
                "species": [
                    {
                        "element": "Sb",
                        "occu": 1
                    }
                ],
                "abc": [
                    0.0,
                    0.5,
                    0.0
                ],
                "xyz": [
                    2.996251025,
                    1.23567486,
                    0.00095909
                ],
                "label": "Sb",
                "properties": {}
            },
            {
                "species": [
                    {
                        "element": "O",
                        "occu": 1
                    }
                ],
                "abc": [
                    0.68797436,
                    0.50315593,
                    0.96434743
                ],
                "xyz": [
                    5.683289419022687,
                    -0.4567509752313397,
                    5.089166471927151
                ],
                "label": "O",
                "properties": {}
            },
            {
                "species": [
                    {
                        "element": "O",
                        "occu": 1
                    }
                ],
                "abc": [
                    0.49684407,
                    0.31202564,
                    0.53565257
                ],
                "xyz": [
                    4.039208595977313,
                    -0.4567509752313398,
                    2.827090523072849
                ],
                "label": "O",
                "properties": {}
            },
            {
                "species": [
                    {
                        "element": "O",
                        "occu": 1
                    }
                ],
                "abc": [
                    0.31202564,
                    0.49684407,
                    0.03565257
                ],
                "xyz": [
                    4.793377290977313,
                    0.4567509752313398,
                    0.18961697807284913
                ],
                "label": "O",
                "properties": {}
            },
            {
                "species": [
                    {
                        "element": "O",
                        "occu": 1
                    }
                ],
                "abc": [
                    0.50315593,
                    0.68797436,
                    0.46434743
                ],
                "xyz": [
                    6.437458114022687,
                    0.4567509752313397,
                    2.451692926927151
                ],
                "label": "O",
                "properties": {}
            },
            {
                "species": [
                    {
                        "element": "O",
                        "occu": 1
                    }
                ],
                "abc": [
                    0.13694482,
                    0.2306505,
                    0.67283308
                ],
                "xyz": [
                    1.187956416877545,
                    0.23157950603040972,
                    3.5498640113926547
                ],
                "label": "O",
                "properties": {}
            },
            {
                "species": [
                    {
                        "element": "O",
                        "occu": 1
                    }
                ],
                "abc": [
                    0.7693495,
                    0.86305518,
                    0.82716692
                ],
                "xyz": [
                    8.534541598122455,
                    0.23157950603040933,
                    4.366392983607345
                ],
                "label": "O",
                "properties": {}
            },
            {
                "species": [
                    {
                        "element": "O",
                        "occu": 1
                    }
                ],
                "abc": [
                    0.86305518,
                    0.7693495,
                    0.32716692
                ],
                "xyz": [
                    9.288710293122456,
                    -0.23157950603040933,
                    1.7289194386073454
                ],
                "label": "O",
                "properties": {}
            },
            {
                "species": [
                    {
                        "element": "O",
                        "occu": 1
                    }
                ],
                "abc": [
                    0.2306505,
                    0.13694482,
                    0.17283308
                ],
                "xyz": [
                    1.9421251118775449,
                    -0.23157950603040972,
                    0.9123904663926549
                ],
                "label": "O",
                "properties": {}
            }
        ]
    },
    "spacegroup": {
        "source": "spglib",
        "symbol": "C2/c",
        "number": 15,
        "point_group": "2/m",
        "crystal_system": "monoclinic",
        "hall": "-C 2yc"
    },
    "dielectric": {
        "epsilon_ionic": [
            [
                17.55005539,
                -1e-08,
                -1.28812889
            ],
            [
                -1e-08,
                11.01436084,
                5e-08
            ],
            [
                -1.28812889,
                5e-08,
                19.68280175
            ]
        ],
        "epsilon_ionic_avg": 16.082405993333335,
        "epsilon_ionic_eig": [
            20.288680882384696,
            16.94417625761531,
            11.014360839999998
        ],
        "epsilon_electronic": [
            [
                5.82814189,
                0.0,
                -0.13821895
            ],
            [
                0.0,
                5.32163676,
                0.0
            ],
            [
                -0.13822003,
                0.0,
                5.56279997
            ]
        ],
        "epsilon_electronic_avg": 5.570859540000001,
        "epsilon_electronic_eig": [
            5.8870595806108605,
            5.50388227938914,
            5.32163676
        ]
    },
    "phonon": {
        "lowest_freq": -0.018014479445254063,
        "frequency": [
            -0.018014479445254063,
            -0.016268261719302835,
            -0.005016902964428734,
            1.6941140076510903,
            2.190536206600483,
            3.548647997962114,
            4.135249411485616,
            4.142636411392403,
            4.555627443739503,
            4.716600008502544,
            5.54218784162657,
            6.018200433467291,
            6.183815081684124,
            7.089636079791806,
            7.307776526901767,
            7.407547119405979,
            7.872260110498664,
            8.158325157904743,
            9.251892758880592,
            9.446932538732616,
            11.410669155789332,
            11.651686045403618,
            11.690993743683775,
            12.110393643986704,
            12.487007429859514,
            13.30156539278151,
            14.01091316841985,
            15.361527408233583,
            16.998427146459367,
            18.137751388414713,
            18.208183012494597,
            18.908882813480556,
            19.748515779973186,
            20.649431095962154,
            21.672726512261388,
            22.392069616280114
        ]
    },
    "born_effective_charge": {
        "avg_abs_trace": 3.2696525,
        "tensors": [
            [
                [
                    4.80912,
                    -0.0001,
                    -0.36658
                ],
                [
                    -0.0,
                    4.26184,
                    0.0
                ],
                [
                    -0.23897,
                    8e-05,
                    4.60246
                ]
            ],
            [
                [
                    4.80912,
                    0.0001,
                    -0.36658
                ],
                [
                    -0.0,
                    4.26233,
                    0.0
                ],
                [
                    -0.23897,
                    -8e-05,
                    4.60246
                ]
            ],
            [
                [
                    5.6899,
                    -0.05792,
                    0.03892
                ],
                [
                    0.01936,
                    4.98374,
                    -0.85777
                ],
                [
                    -0.17827,
                    -0.21102,
                    5.07957
                ]
            ],
            [
                [
                    5.6899,
                    0.05792,
                    0.03892
                ],
                [
                    -0.01936,
                    4.98374,
                    0.85777
                ],
                [
                    -0.17827,
                    0.21102,
                    5.07957
                ]
            ],
            [
                [
                    -2.9637,
                    0.54223,
                    0.203
                ],
                [
                    0.61119,
                    -2.29104,
                    0.52786
                ],
                [
                    0.1991,
                    0.97832,
                    -2.24644
                ]
            ],
            [
                [
                    -2.9636,
                    -0.5426,
                    0.20271
                ],
                [
                    -0.61119,
                    -2.29104,
                    -0.52786
                ],
                [
                    0.19921,
                    -0.97755,
                    -2.2462
                ]
            ],
            [
                [
                    -2.9636,
                    0.5426,
                    0.20271
                ],
                [
                    0.61121,
                    -2.29096,
                    0.52811
                ],
                [
                    0.19921,
                    0.97755,
                    -2.2462
                ]
            ],
            [
                [
                    -2.9637,
                    -0.54223,
                    0.203
                ],
                [
                    -0.61121,
                    -2.29096,
                    -0.52811
                ],
                [
                    0.1991,
                    -0.97832,
                    -2.24644
                ]
            ],
            [
                [
                    -2.28591,
                    0.06002,
                    -0.03892
                ],
                [
                    0.08163,
                    -2.33192,
                    -0.54896
                ],
                [
                    0.00957,
                    -0.75336,
                    -2.59454
                ]
            ],
            [
                [
                    -2.28581,
                    -0.05969,
                    -0.03913
                ],
                [
                    -0.08163,
                    -2.33192,
                    0.54896
                ],
                [
                    0.00936,
                    0.75251,
                    -2.59485
                ]
            ],
            [
                [
                    -2.28581,
                    0.05969,
                    -0.03913
                ],
                [
                    0.08179,
                    -2.3319,
                    -0.549
                ],
                [
                    0.00936,
                    -0.75251,
                    -2.59485
                ]
            ],
            [
                [
                    -2.28591,
                    -0.06002,
                    -0.03892
                ],
                [
                    -0.08179,
                    -2.3319,
                    0.549
                ],
                [
                    0.00957,
                    0.75336,
                    -2.59454
                ]
            ]
        ]
    },
    "band_gap": 2.7187,
    "is_direct": false,
    "formula": "BiSbO4"
}