{
    "mp_id": "mp-28940",
    "nelements": 3,
    "nsites": 30,
    "elements": [
        "Nb",
        "O",
        "Sr"
    ],
    "structure": {
        "@module": "pymatgen.core.structure",
        "@class": "Structure",
        "charge": null,
        "lattice": {
            "matrix": [
                [
                    5.89082481,
                    2e-08,
                    0.0
                ],
                [
                    -2.94541292,
                    5.10160347,
                    0.0
                ],
                [
                    0.0,
                    0.0,
                    15.7494842
                ]
            ],
            "a": 5.89082481,
            "b": 5.890824665054883,
            "c": 15.7494842,
            "alpha": 90.0,
            "beta": 90.0,
            "gamma": 120.00000640334072,
            "volume": 473.31377336648745
        },
        "sites": [
            {
                "species": [
                    {
                        "element": "Sr",
                        "occu": 1
                    }
                ],
                "abc": [
                    0.333333,
                    0.666667,
                    0.86063702
                ],
                "xyz": [
                    -3.2887459100461314e-06,
                    3.40107068720115,
                    13.554589148425084
                ],
                "label": "Sr",
                "properties": {}
            },
            {
                "species": [
                    {
                        "element": "Sr",
                        "occu": 1
                    }
                ],
                "abc": [
                    0.666667,
                    0.333333,
                    0.36063702
                ],
                "xyz": [
                    2.94541517874591,
                    1.7005328027988498,
                    5.679847048425083
                ],
                "label": "Sr",
                "properties": {}
            },
            {
                "species": [
                    {
                        "element": "Sr",
                        "occu": 1
                    }
                ],
                "abc": [
                    0.666667,
                    0.333333,
                    0.13936298
                ],
                "xyz": [
                    2.94541517874591,
                    1.7005328027988498,
                    2.1948950515749157
                ],
                "label": "Sr",
                "properties": {}
            },
            {
                "species": [
                    {
                        "element": "Sr",
                        "occu": 1
                    }
                ],
                "abc": [
                    0.333333,
                    0.666667,
                    0.63936298
                ],
                "xyz": [
                    -3.2887459100461314e-06,
                    3.40107068720115,
                    10.069637151574916
                ],
                "label": "Sr",
                "properties": {}
            },
            {
                "species": [
                    {
                        "element": "Sr",
                        "occu": 1
                    }
                ],
                "abc": [
                    0.0,
                    0.0,
                    0.75
                ],
                "xyz": [
                    0.0,
                    0.0,
                    11.81211315
                ],
                "label": "Sr",
                "properties": {}
            },
            {
                "species": [
                    {
                        "element": "Sr",
                        "occu": 1
                    }
                ],
                "abc": [
                    0.0,
                    0.0,
                    0.0
                ],
                "xyz": [
                    0.0,
                    0.0,
                    0.0
                ],
                "label": "Sr",
                "properties": {}
            },
            {
                "species": [
                    {
                        "element": "Sr",
                        "occu": 1
                    }
                ],
                "abc": [
                    0.0,
                    0.0,
                    0.25
                ],
                "xyz": [
                    0.0,
                    0.0,
                    3.93737105
                ],
                "label": "Sr",
                "properties": {}
            },
            {
                "species": [
                    {
                        "element": "Sr",
                        "occu": 1
                    }
                ],
                "abc": [
                    0.0,
                    0.0,
                    0.5
                ],
                "xyz": [
                    0.0,
                    0.0,
                    7.8747421
                ],
                "label": "Sr",
                "properties": {}
            },
            {
                "species": [
                    {
                        "element": "Nb",
                        "occu": 1
                    }
                ],
                "abc": [
                    0.333333,
                    0.666667,
                    0.34564778
                ],
                "xyz": [
                    -3.2887459100461314e-06,
                    3.40107068720115,
                    5.443774249875076
                ],
                "label": "Nb",
                "properties": {}
            },
            {
                "species": [
                    {
                        "element": "Nb",
                        "occu": 1
                    }
                ],
                "abc": [
                    0.333333,
                    0.666667,
                    0.15435222
                ],
                "xyz": [
                    -3.2887459100461314e-06,
                    3.40107068720115,
                    2.430967850124924
                ],
                "label": "Nb",
                "properties": {}
            },
            {
                "species": [
                    {
                        "element": "Nb",
                        "occu": 1
                    }
                ],
                "abc": [
                    0.666667,
                    0.333333,
                    0.65435222
                ],
                "xyz": [
                    2.94541517874591,
                    1.7005328027988498,
                    10.305709950124925
                ],
                "label": "Nb",
                "properties": {}
            },
            {
                "species": [
                    {
                        "element": "Nb",
                        "occu": 1
                    }
                ],
                "abc": [
                    0.666667,
                    0.333333,
                    0.84564778
                ],
                "xyz": [
                    2.94541517874591,
                    1.7005328027988498,
                    13.318516349875075
                ],
                "label": "Nb",
                "properties": {}
            },
            {
                "species": [
                    {
                        "element": "O",
                        "occu": 1
                    }
                ],
                "abc": [
                    0.7291506,
                    0.65391276,
                    0.89764594
                ],
                "xyz": [
                    2.3692553528495264,
                    3.3360036200762893,
                    14.137460549224148
                ],
                "label": "O",
                "properties": {}
            },
            {
                "species": [
                    {
                        "element": "O",
                        "occu": 1
                    }
                ],
                "abc": [
                    0.07523784,
                    0.7291506,
                    0.39764594
                ],
                "xyz": [
                    -1.7044366633429415,
                    3.7198372326173383,
                    6.262718449224147
                ],
                "label": "O",
                "properties": {}
            },
            {
                "species": [
                    {
                        "element": "O",
                        "occu": 1
                    }
                ],
                "abc": [
                    0.92476216,
                    0.2708494,
                    0.60235406
                ],
                "xyz": [
                    4.649848553342942,
                    1.3817662573826612,
                    9.486765750775852
                ],
                "label": "O",
                "properties": {}
            },
            {
                "species": [
                    {
                        "element": "O",
                        "occu": 1
                    }
                ],
                "abc": [
                    0.40817335,
                    0.96419638,
                    0.25
                ],
                "xyz": [
                    -0.43547877810841573,
                    4.918947606132905,
                    3.93737105
                ],
                "label": "O",
                "properties": {}
            },
            {
                "species": [
                    {
                        "element": "O",
                        "occu": 1
                    }
                ],
                "abc": [
                    0.96419638,
                    0.55602403,
                    0.75
                ],
                "xyz": [
                    4.04219159522372,
                    2.8366141401353118,
                    11.81211315
                ],
                "label": "O",
                "properties": {}
            },
            {
                "species": [
                    {
                        "element": "O",
                        "occu": 1
                    }
                ],
                "abc": [
                    0.07523784,
                    0.7291506,
                    0.10235406
                ],
                "xyz": [
                    -1.7044366633429415,
                    3.7198372326173383,
                    1.6120236507758519
                ],
                "label": "O",
                "properties": {}
            },
            {
                "species": [
                    {
                        "element": "O",
                        "occu": 1
                    }
                ],
                "abc": [
                    0.34608724,
                    0.07523784,
                    0.89764594
                ],
                "xyz": [
                    1.817132793807532,
                    0.3838336325410496,
                    14.137460549224148
                ],
                "label": "O",
                "properties": {}
            },
            {
                "species": [
                    {
                        "element": "O",
                        "occu": 1
                    }
                ],
                "abc": [
                    0.03580362,
                    0.44397597,
                    0.25
                ],
                "xyz": [
                    -1.09677970522372,
                    2.2649893498646883,
                    3.93737105
                ],
                "label": "O",
                "properties": {}
            },
            {
                "species": [
                    {
                        "element": "O",
                        "occu": 1
                    }
                ],
                "abc": [
                    0.2708494,
                    0.34608724,
                    0.10235406
                ],
                "xyz": [
                    0.5761565371504731,
                    1.7655998699237108,
                    1.6120236507758519
                ],
                "label": "O",
                "properties": {}
            },
            {
                "species": [
                    {
                        "element": "O",
                        "occu": 1
                    }
                ],
                "abc": [
                    0.55602403,
                    0.59182665,
                    0.25
                ],
                "xyz": [
                    1.532266289569866,
                    3.0192649023989557,
                    3.93737105
                ],
                "label": "O",
                "properties": {}
            },
            {
                "species": [
                    {
                        "element": "O",
                        "occu": 1
                    }
                ],
                "abc": [
                    0.44397597,
                    0.40817335,
                    0.75
                ],
                "xyz": [
                    1.413145600430134,
                    2.082338587601044,
                    11.81211315
                ],
                "label": "O",
                "properties": {}
            },
            {
                "species": [
                    {
                        "element": "O",
                        "occu": 1
                    }
                ],
                "abc": [
                    0.59182665,
                    0.03580362,
                    0.75
                ],
                "xyz": [
                    3.380890668108416,
                    0.1826558838670944,
                    11.81211315
                ],
                "label": "O",
                "properties": {}
            },
            {
                "species": [
                    {
                        "element": "O",
                        "occu": 1
                    }
                ],
                "abc": [
                    0.34608724,
                    0.07523784,
                    0.60235406
                ],
                "xyz": [
                    1.817132793807532,
                    0.3838336325410496,
                    9.486765750775852
                ],
                "label": "O",
                "properties": {}
            },
            {
                "species": [
                    {
                        "element": "O",
                        "occu": 1
                    }
                ],
                "abc": [
                    0.7291506,
                    0.65391276,
                    0.60235406
                ],
                "xyz": [
                    2.3692553528495264,
                    3.3360036200762893,
                    9.486765750775852
                ],
                "label": "O",
                "properties": {}
            },
            {
                "species": [
                    {
                        "element": "O",
                        "occu": 1
                    }
                ],
                "abc": [
                    0.65391276,
                    0.92476216,
                    0.39764594
                ],
                "xyz": [
                    1.1282790961924682,
                    4.71776985745895,
                    6.262718449224147
                ],
                "label": "O",
                "properties": {}
            },
            {
                "species": [
                    {
                        "element": "O",
                        "occu": 1
                    }
                ],
                "abc": [
                    0.65391276,
                    0.92476216,
                    0.10235406
                ],
                "xyz": [
                    1.1282790961924682,
                    4.71776985745895,
                    1.6120236507758519
                ],
                "label": "O",
                "properties": {}
            },
            {
                "species": [
                    {
                        "element": "O",
                        "occu": 1
                    }
                ],
                "abc": [
                    0.2708494,
                    0.34608724,
                    0.39764594
                ],
                "xyz": [
                    0.5761565371504731,
                    1.7655998699237108,
                    6.262718449224147
                ],
                "label": "O",
                "properties": {}
            },
            {
                "species": [
                    {
                        "element": "O",
                        "occu": 1
                    }
                ],
                "abc": [
                    0.92476216,
                    0.2708494,
                    0.89764594
                ],
                "xyz": [
                    4.649848553342942,
                    1.3817662573826612,
                    14.137460549224148
                ],
                "label": "O",
                "properties": {}
            }
        ]
    },
    "spacegroup": {
        "source": "spglib",
        "symbol": "P6_3/m",
        "number": 176,
        "point_group": "6/m",
        "crystal_system": "hexagonal",
        "hall": "-P 6c"
    },
    "dielectric": {
        "epsilon_ionic": [
            [
                12.94554516,
                -0.00021978,
                0.0
            ],
            [
                -0.00021978,
                12.94615685,
                0.0
            ],
            [
                0.0,
                0.0,
                49.46039084
            ]
        ],
        "epsilon_ionic_avg": 25.117364283333334,
        "epsilon_ionic_eig": [
            12.945474382626228,
            12.946227627373771,
            49.46039084
        ],
        "epsilon_electronic": [
            [
                3.99495539,
                1e-07,
                0.0
            ],
            [
                6.8e-07,
                3.99495523,
                0.0
            ],
            [
                0.0,
                0.0,
                3.52396421
            ]
        ],
        "epsilon_electronic_avg": 3.8379582766666664,
        "epsilon_electronic_eig": [
            3.994955582763634,
            3.994955037236366,
            3.52396421
        ]
    },
    "phonon": {
        "lowest_freq": -0.07153857261126532,
        "frequency": [
            -0.07153857261126532,
            -0.02949655270991866,
            -0.029496549768488454,
            0.7163925067760482,
            1.5091327299850346,
            1.509132863591639,
            1.5645827074139462,
            1.5645828558114152,
            1.7083544321406003,
            1.78587679377874,
            1.7858769306303546,
            1.8997755574738509,
            2.7777168198917956,
            2.777716960669357,
            2.962606457710021,
            2.9972933816681984,
            2.997293561056802,
            3.5478746297648818,
            3.614204150424484,
            3.6142043532908255,
            3.864798300321865,
            4.03914009347119,
            4.083967307887799,
            4.083967657974027,
            4.668002642355906,
            4.95686258043139,
            4.956862851611126,
            5.023382645496746,
            5.023383034716742,
            5.177109665353819,
            5.177109995808643,
            5.2204521344644785,
            5.220452579215448,
            5.439448837848805,
            6.081369207044331,
            6.0813697093985555,
            6.26559141642009,
            6.2655918845006395,
            6.360061285813258,
            6.360061804582102,
            6.387467704933381,
            6.393166802448901,
            6.393167280303089,
            6.406507360438762,
            7.456189887215284,
            7.841006868436636,
            8.208740147952875,
            8.258588379791354,
            9.584332696160708,
            9.801936374469841,
            9.935199738119666,
            9.935199971814134,
            9.989630717074824,
            10.000111155511302,
            10.00011194980287,
            10.024186956228698,
            10.02418779737464,
            10.206090249212782,
            10.20609046473127,
            10.757248081296517,
            10.75724844480975,
            10.850166015678406,
            10.897241474093436,
            10.897241855364436,
            10.978561891127205,
            11.10702090946634,
            12.935738090123099,
            12.935738109016503,
            12.957397436963964,
            12.957397455825785,
            13.27115901731123,
            13.271159127806536,
            13.282997084837406,
            13.282997195234238,
            15.436056377798955,
            15.878460708942631,
            15.879107772431203,
            17.71038445798482,
            18.958020099960248,
            18.958020937917382,
            19.091329707018527,
            19.091330603132576,
            19.21171076186543,
            19.211711588757343,
            19.340594106321063,
            19.340595054069066,
            21.68356322599974,
            22.918599031995,
            23.048948080886337,
            23.162348675152725
        ]
    },
    "born_effective_charge": {
        "avg_abs_trace": 2.6796374444444453,
        "tensors": [
            [
                [
                    2.84733,
                    0.13702,
                    0.00019
                ],
                [
                    -0.13703,
                    2.84718,
                    0.0002
                ],
                [
                    -0.0,
                    -0.0,
                    1.86202
                ]
            ],
            [
                [
                    2.84731,
                    0.13677,
                    -0.00024
                ],
                [
                    -0.13703,
                    2.84757,
                    -0.00011
                ],
                [
                    -0.0,
                    -0.0,
                    1.86202
                ]
            ],
            [
                [
                    2.84731,
                    0.13677,
                    0.00024
                ],
                [
                    -0.13703,
                    2.84757,
                    0.00011
                ],
                [
                    -0.0,
                    -0.0,
                    1.86191
                ]
            ],
            [
                [
                    2.84733,
                    0.13702,
                    -0.00019
                ],
                [
                    -0.13703,
                    2.84718,
                    -0.0002
                ],
                [
                    -0.0,
                    -0.0,
                    1.86191
                ]
            ],
            [
                [
                    2.84849,
                    -0.02323,
                    -0.0
                ],
                [
                    0.0232,
                    2.84878,
                    -0.0
                ],
                [
                    -0.0,
                    -0.0,
                    1.60679
                ]
            ],
            [
                [
                    2.70273,
                    -0.33383,
                    0.00027
                ],
                [
                    0.33381,
                    2.70278,
                    -0.00011
                ],
                [
                    -0.0,
                    -0.0,
                    3.78957
                ]
            ],
            [
                [
                    2.84866,
                    -0.02297,
                    -0.0
                ],
                [
                    0.02318,
                    2.84865,
                    -0.0
                ],
                [
                    -0.0,
                    -0.0,
                    1.60679
                ]
            ],
            [
                [
                    2.70273,
                    -0.33383,
                    -0.00027
                ],
                [
                    0.33381,
                    2.70278,
                    0.00011
                ],
                [
                    -0.0,
                    -0.0,
                    3.78957
                ]
            ],
            [
                [
                    5.05539,
                    0.03001,
                    -0.00021
                ],
                [
                    -0.03032,
                    5.05521,
                    -0.00015
                ],
                [
                    -0.0,
                    -0.0,
                    4.22916
                ]
            ],
            [
                [
                    5.05539,
                    0.03001,
                    0.00021
                ],
                [
                    -0.03032,
                    5.05521,
                    0.00015
                ],
                [
                    -0.0,
                    -0.0,
                    4.22849
                ]
            ],
            [
                [
                    5.05551,
                    0.03173,
                    -0.00046
                ],
                [
                    -0.03154,
                    5.0556,
                    8e-05
                ],
                [
                    -0.0,
                    -0.0,
                    4.22849
                ]
            ],
            [
                [
                    5.05551,
                    0.03173,
                    0.00046
                ],
                [
                    -0.03154,
                    5.0556,
                    -8e-05
                ],
                [
                    -0.0,
                    -0.0,
                    4.22916
                ]
            ],
            [
                [
                    -1.7705,
                    0.59889,
                    0.13795
                ],
                [
                    0.58059,
                    -3.05356,
                    -0.87713
                ],
                [
                    0.15349,
                    -0.97001,
                    -1.84507
                ]
            ],
            [
                [
                    -3.24358,
                    0.2701,
                    0.82886
                ],
                [
                    0.25179,
                    -1.58063,
                    -0.31879
                ],
                [
                    0.9168,
                    -0.35208,
                    -1.84507
                ]
            ],
            [
                [
                    -3.24346,
                    0.26989,
                    0.82888
                ],
                [
                    0.25175,
                    -1.58063,
                    -0.31905
                ],
                [
                    0.91674,
                    -0.35215,
                    -1.8449
                ]
            ],
            [
                [
                    -1.70564,
                    0.33553,
                    -0.0
                ],
                [
                    0.35832,
                    -2.88409,
                    -0.0
                ],
                [
                    -0.0001,
                    0.00021,
                    -2.16934
                ]
            ],
            [
                [
                    -2.28919,
                    -0.69526,
                    -0.0
                ],
                [
                    -0.6723,
                    -2.30067,
                    -0.0
                ],
                [
                    0.00013,
                    0.00019,
                    -2.16934
                ]
            ],
            [
                [
                    -3.24358,
                    0.2701,
                    -0.82886
                ],
                [
                    0.25179,
                    -1.58063,
                    0.31879
                ],
                [
                    -0.91674,
                    0.35215,
                    -1.8449
                ]
            ],
            [
                [
                    -2.22222,
                    -0.84125,
                    0.69072
                ],
                [
                    -0.85969,
                    -2.60177,
                    0.55802
                ],
                [
                    0.76331,
                    0.61793,
                    -1.84507
                ]
            ],
            [
                [
                    -2.28897,
                    -0.69497,
                    -0.0
                ],
                [
                    -0.67239,
                    -2.30062,
                    -0.0
                ],
                [
                    -0.00013,
                    -0.00019,
                    -2.16934
                ]
            ],
            [
                [
                    -1.77004,
                    0.5989,
                    0.13846
                ],
                [
                    0.58003,
                    -3.0538,
                    -0.87743
                ],
                [
                    0.1534,
                    -0.97,
                    -1.8449
                ]
            ],
            [
                [
                    -2.88994,
                    0.32559,
                    -0.0
                ],
                [
                    0.34799,
                    -1.69998,
                    -0.0
                ],
                [
                    0.00023,
                    -2e-05,
                    -2.16934
                ]
            ],
            [
                [
                    -2.89033,
                    0.32563,
                    -0.0
                ],
                [
                    0.34849,
                    -1.70009,
                    -0.0
                ],
                [
                    -0.00023,
                    2e-05,
                    -2.16934
                ]
            ],
            [
                [
                    -1.70536,
                    0.3357,
                    -0.0
                ],
                [
                    0.35797,
                    -2.88421,
                    -0.0
                ],
                [
                    0.0001,
                    -0.00021,
                    -2.16934
                ]
            ],
            [
                [
                    -2.22222,
                    -0.84125,
                    -0.69072
                ],
                [
                    -0.85969,
                    -2.60177,
                    -0.55802
                ],
                [
                    -0.76334,
                    -0.61785,
                    -1.8449
                ]
            ],
            [
                [
                    -1.7705,
                    0.59889,
                    -0.13795
                ],
                [
                    0.58059,
                    -3.05356,
                    0.87713
                ],
                [
                    -0.1534,
                    0.97,
                    -1.8449
                ]
            ],
            [
                [
                    -2.22234,
                    -0.84125,
                    -0.6906
                ],
                [
                    -0.8596,
                    -2.60184,
                    -0.55833
                ],
                [
                    -0.76331,
                    -0.61793,
                    -1.84507
                ]
            ],
            [
                [
                    -2.22234,
                    -0.84125,
                    0.6906
                ],
                [
                    -0.8596,
                    -2.60184,
                    0.55833
                ],
                [
                    0.76334,
                    0.61785,
                    -1.8449
                ]
            ],
            [
                [
                    -1.77004,
                    0.5989,
                    -0.13846
                ],
                [
                    0.58003,
                    -3.0538,
                    0.87743
                ],
                [
                    -0.15349,
                    0.97001,
                    -1.84507
                ]
            ],
            [
                [
                    -3.24346,
                    0.26989,
                    -0.82888
                ],
                [
                    0.25175,
                    -1.58063,
                    0.31905
                ],
                [
                    -0.9168,
                    0.35208,
                    -1.84507
                ]
            ]
        ]
    },
    "band_gap": 3.8893000000000004,
    "is_direct": false,
    "formula": "Sr4Nb2O9"
}