{
    "mp_id": "mp-27791",
    "nelements": 3,
    "nsites": 16,
    "elements": [
        "Be",
        "O",
        "Sr"
    ],
    "structure": {
        "@module": "pymatgen.core.structure",
        "@class": "Structure",
        "charge": null,
        "lattice": {
            "matrix": [
                [
                    4.5898249,
                    0.0,
                    0.0
                ],
                [
                    -2.29491195,
                    3.97490473,
                    0.0
                ],
                [
                    0.0,
                    0.0,
                    8.90914779
                ]
            ],
            "a": 4.5898249,
            "b": 4.589824448802936,
            "c": 8.90914779,
            "alpha": 90.0,
            "beta": 90.0,
            "gamma": 119.99999604467344,
            "volume": 162.53953202179957
        },
        "sites": [
            {
                "species": [
                    {
                        "element": "Sr",
                        "occu": 1
                    }
                ],
                "abc": [
                    0.666667,
                    0.333333,
                    0.75
                ],
                "xyz": [
                    2.29491491157895,
                    1.32496691836509,
                    6.681860842500001
                ],
                "label": "Sr",
                "properties": {}
            },
            {
                "species": [
                    {
                        "element": "Sr",
                        "occu": 1
                    }
                ],
                "abc": [
                    0.333333,
                    0.666667,
                    0.25
                ],
                "xyz": [
                    -1.961578949938314e-06,
                    2.64993781163491,
                    2.2272869475
                ],
                "label": "Sr",
                "properties": {}
            },
            {
                "species": [
                    {
                        "element": "Be",
                        "occu": 1
                    }
                ],
                "abc": [
                    0.0,
                    0.0,
                    0.0
                ],
                "xyz": [
                    0.0,
                    0.0,
                    0.0
                ],
                "label": "Be",
                "properties": {}
            },
            {
                "species": [
                    {
                        "element": "Be",
                        "occu": 1
                    }
                ],
                "abc": [
                    0.0,
                    0.0,
                    0.5
                ],
                "xyz": [
                    0.0,
                    0.0,
                    4.454573895
                ],
                "label": "Be",
                "properties": {}
            },
            {
                "species": [
                    {
                        "element": "Be",
                        "occu": 1
                    }
                ],
                "abc": [
                    0.333333,
                    0.666667,
                    0.57110973
                ],
                "xyz": [
                    -1.961578949938314e-06,
                    2.64993781163491,
                    5.088100988876997
                ],
                "label": "Be",
                "properties": {}
            },
            {
                "species": [
                    {
                        "element": "Be",
                        "occu": 1
                    }
                ],
                "abc": [
                    0.333333,
                    0.666667,
                    0.92889027
                ],
                "xyz": [
                    -1.961578949938314e-06,
                    2.64993781163491,
                    8.275620696123005
                ],
                "label": "Be",
                "properties": {}
            },
            {
                "species": [
                    {
                        "element": "Be",
                        "occu": 1
                    }
                ],
                "abc": [
                    0.666667,
                    0.333333,
                    0.42889027
                ],
                "xyz": [
                    2.29491491157895,
                    1.32496691836509,
                    3.8210468011230034
                ],
                "label": "Be",
                "properties": {}
            },
            {
                "species": [
                    {
                        "element": "Be",
                        "occu": 1
                    }
                ],
                "abc": [
                    0.666667,
                    0.333333,
                    0.07110973
                ],
                "xyz": [
                    2.29491491157895,
                    1.32496691836509,
                    0.6335270938769967
                ],
                "label": "Be",
                "properties": {}
            },
            {
                "species": [
                    {
                        "element": "O",
                        "occu": 1
                    }
                ],
                "abc": [
                    0.66497353,
                    0.0,
                    0.5
                ],
                "xyz": [
                    3.0521120658348972,
                    0.0,
                    4.454573895
                ],
                "label": "O",
                "properties": {}
            },
            {
                "species": [
                    {
                        "element": "O",
                        "occu": 1
                    }
                ],
                "abc": [
                    0.33502647,
                    0.33502647,
                    0.0
                ],
                "xyz": [
                    0.7688565845957867,
                    1.3316983002782032,
                    0.0
                ],
                "label": "O",
                "properties": {}
            },
            {
                "species": [
                    {
                        "element": "O",
                        "occu": 1
                    }
                ],
                "abc": [
                    0.666667,
                    0.333333,
                    0.25
                ],
                "xyz": [
                    2.29491491157895,
                    1.32496691836509,
                    2.2272869475
                ],
                "label": "O",
                "properties": {}
            },
            {
                "species": [
                    {
                        "element": "O",
                        "occu": 1
                    }
                ],
                "abc": [
                    0.333333,
                    0.666667,
                    0.75
                ],
                "xyz": [
                    -1.961578949938314e-06,
                    2.64993781163491,
                    6.681860842500001
                ],
                "label": "O",
                "properties": {}
            },
            {
                "species": [
                    {
                        "element": "O",
                        "occu": 1
                    }
                ],
                "abc": [
                    0.66497353,
                    0.0,
                    0.0
                ],
                "xyz": [
                    3.0521120658348972,
                    0.0,
                    0.0
                ],
                "label": "O",
                "properties": {}
            },
            {
                "species": [
                    {
                        "element": "O",
                        "occu": 1
                    }
                ],
                "abc": [
                    0.33502647,
                    0.33502647,
                    0.5
                ],
                "xyz": [
                    0.7688565845957867,
                    1.3316983002782032,
                    4.454573895
                ],
                "label": "O",
                "properties": {}
            },
            {
                "species": [
                    {
                        "element": "O",
                        "occu": 1
                    }
                ],
                "abc": [
                    0.0,
                    0.66497353,
                    0.5
                ],
                "xyz": [
                    -1.5260557004306836,
                    2.643206429721797,
                    4.454573895
                ],
                "label": "O",
                "properties": {}
            },
            {
                "species": [
                    {
                        "element": "O",
                        "occu": 1
                    }
                ],
                "abc": [
                    0.0,
                    0.66497353,
                    0.0
                ],
                "xyz": [
                    -1.5260557004306836,
                    2.643206429721797,
                    0.0
                ],
                "label": "O",
                "properties": {}
            }
        ]
    },
    "spacegroup": {
        "source": "spglib",
        "symbol": "P-62c",
        "number": 190,
        "point_group": "-6m2",
        "crystal_system": "hexagonal",
        "hall": "P -6c -2c"
    },
    "dielectric": {
        "epsilon_ionic": [
            [
                5.37534228,
                -0.00014693,
                -0.0
            ],
            [
                -0.00014693,
                5.37515856,
                -0.0
            ],
            [
                -0.0,
                -0.0,
                6.38886259
            ]
        ],
        "epsilon_ionic_avg": 5.713121143333333,
        "epsilon_ionic_eig": [
            5.375423702095151,
            5.3750771379048485,
            6.38886259
        ],
        "epsilon_electronic": [
            [
                3.16515211,
                4e-07,
                0.0
            ],
            [
                4e-07,
                3.16515204,
                0.0
            ],
            [
                0.0,
                0.0,
                3.22992548
            ]
        ],
        "epsilon_electronic_avg": 3.18674321,
        "epsilon_electronic_eig": [
            3.1651524765283305,
            3.16515167347167,
            3.22992548
        ]
    },
    "phonon": {
        "lowest_freq": -0.0584533324095253,
        "frequency": [
            -0.0584533324095253,
            -0.029046126304505898,
            -0.029046122644325444,
            2.5469016108025038,
            2.5469017307522326,
            3.6178493926256423,
            3.6178497810610155,
            3.6428088260422906,
            3.6428090038337597,
            4.872467108490318,
            4.872467687831603,
            5.350011904498011,
            5.6753827761764395,
            8.444172746603966,
            8.44417332546499,
            8.997050774416307,
            9.521897324253462,
            9.521897516757214,
            11.533848357728818,
            11.533848919258945,
            14.100077410214388,
            14.93731333099303,
            16.15858003969405,
            16.35043843183231,
            17.692685969425167,
            17.692685969425167,
            17.783602203802747,
            17.783602272517772,
            17.909908831911906,
            20.76481054804955,
            20.984953265392047,
            20.984953789482123,
            20.988196200719184,
            20.98819666650505,
            21.132101543559102,
            21.466884793751568,
            21.466885761475154,
            21.489570934391327,
            21.55243834333653,
            21.552439193820785,
            24.414879197370325,
            25.512861976126246,
            26.561989066317576,
            28.87646983557703,
            29.60621850818483,
            29.60622172764516,
            29.61184901558298,
            29.61185223443115
        ]
    },
    "born_effective_charge": {
        "avg_abs_trace": 1.8725606249999998,
        "tensors": [
            [
                [
                    2.27457,
                    -0.01423,
                    0.0
                ],
                [
                    0.0142,
                    2.27458,
                    0.0
                ],
                [
                    -0.0,
                    -0.0,
                    2.8231
                ]
            ],
            [
                [
                    2.27457,
                    0.01423,
                    0.0
                ],
                [
                    -0.01427,
                    2.27455,
                    0.0
                ],
                [
                    -0.0,
                    -0.0,
                    2.8231
                ]
            ],
            [
                [
                    2.00478,
                    0.0,
                    0.0
                ],
                [
                    -4e-05,
                    2.00478,
                    0.0
                ],
                [
                    -0.0,
                    -0.0,
                    0.66852
                ]
            ],
            [
                [
                    2.00478,
                    0.0,
                    0.0
                ],
                [
                    -4e-05,
                    2.00478,
                    -0.0
                ],
                [
                    -0.0,
                    -0.0,
                    0.66852
                ]
            ],
            [
                [
                    1.67424,
                    0.02159,
                    1e-05
                ],
                [
                    -0.0216,
                    1.67419,
                    4e-05
                ],
                [
                    -0.0,
                    -0.0,
                    1.86176
                ]
            ],
            [
                [
                    1.67424,
                    0.02159,
                    -1e-05
                ],
                [
                    -0.0216,
                    1.67419,
                    -4e-05
                ],
                [
                    -0.0,
                    -0.0,
                    1.86179
                ]
            ],
            [
                [
                    1.67424,
                    -0.02159,
                    -1e-05
                ],
                [
                    0.02155,
                    1.67419,
                    -4e-05
                ],
                [
                    -0.0,
                    -0.0,
                    1.86179
                ]
            ],
            [
                [
                    1.67424,
                    -0.02159,
                    1e-05
                ],
                [
                    0.02155,
                    1.67419,
                    4e-05
                ],
                [
                    -0.0,
                    -0.0,
                    1.86176
                ]
            ],
            [
                [
                    -1.95837,
                    0.0,
                    0.0
                ],
                [
                    6e-05,
                    -1.99991,
                    0.12421
                ],
                [
                    -1e-05,
                    0.13933,
                    -1.56683
                ]
            ],
            [
                [
                    -1.98958,
                    0.01801,
                    -0.10763
                ],
                [
                    0.018,
                    -1.9688,
                    0.06214
                ],
                [
                    -0.12066,
                    0.06967,
                    -1.56683
                ]
            ],
            [
                [
                    -1.6903,
                    0.00795,
                    0.0
                ],
                [
                    -0.00791,
                    -1.69026,
                    0.0
                ],
                [
                    -0.0,
                    -0.0,
                    -2.51468
                ]
            ],
            [
                [
                    -1.6903,
                    -0.00795,
                    0.0
                ],
                [
                    0.0081,
                    -1.6903,
                    0.0
                ],
                [
                    -0.0,
                    -0.0,
                    -2.51468
                ]
            ],
            [
                [
                    -1.95837,
                    0.0,
                    0.0
                ],
                [
                    6e-05,
                    -1.99991,
                    -0.12421
                ],
                [
                    -1e-05,
                    -0.13933,
                    -1.56683
                ]
            ],
            [
                [
                    -1.98958,
                    0.01801,
                    0.10763
                ],
                [
                    0.018,
                    -1.9688,
                    -0.06214
                ],
                [
                    0.12067,
                    -0.06966,
                    -1.56683
                ]
            ],
            [
                [
                    -1.98958,
                    -0.01801,
                    -0.10763
                ],
                [
                    -0.01804,
                    -1.96874,
                    -0.06205
                ],
                [
                    -0.12066,
                    -0.06967,
                    -1.56683
                ]
            ],
            [
                [
                    -1.98958,
                    -0.01801,
                    0.10763
                ],
                [
                    -0.01804,
                    -1.96874,
                    0.06205
                ],
                [
                    0.12067,
                    0.06966,
                    -1.56683
                ]
            ]
        ]
    },
    "band_gap": 4.0282,
    "is_direct": true,
    "formula": "SrBe3O4"
}