{
    "mp_id": "mp-2895",
    "nelements": 3,
    "nsites": 28,
    "elements": [
        "Mg",
        "O",
        "Si"
    ],
    "structure": {
        "@module": "pymatgen.core.structure",
        "@class": "Structure",
        "charge": null,
        "lattice": {
            "matrix": [
                [
                    10.19293699,
                    0.0,
                    0.0
                ],
                [
                    0.0,
                    5.98015522,
                    0.0
                ],
                [
                    0.0,
                    0.0,
                    4.762706
                ]
            ],
            "a": 10.19293699,
            "b": 5.98015522,
            "c": 4.762706,
            "alpha": 90.0,
            "beta": 90.0,
            "gamma": 90.0,
            "volume": 290.3123890204182
        },
        "sites": [
            {
                "species": [
                    {
                        "element": "Mg",
                        "occu": 1
                    }
                ],
                "abc": [
                    0.0,
                    0.0,
                    0.0
                ],
                "xyz": [
                    0.0,
                    0.0,
                    0.0
                ],
                "label": "Mg",
                "properties": {}
            },
            {
                "species": [
                    {
                        "element": "Mg",
                        "occu": 1
                    }
                ],
                "abc": [
                    0.5,
                    0.0,
                    0.5
                ],
                "xyz": [
                    5.096468495,
                    0.0,
                    2.381353
                ],
                "label": "Mg",
                "properties": {}
            },
            {
                "species": [
                    {
                        "element": "Mg",
                        "occu": 1
                    }
                ],
                "abc": [
                    0.0,
                    0.5,
                    0.0
                ],
                "xyz": [
                    0.0,
                    2.99007761,
                    0.0
                ],
                "label": "Mg",
                "properties": {}
            },
            {
                "species": [
                    {
                        "element": "Mg",
                        "occu": 1
                    }
                ],
                "abc": [
                    0.5,
                    0.5,
                    0.5
                ],
                "xyz": [
                    5.096468495,
                    2.99007761,
                    2.381353
                ],
                "label": "Mg",
                "properties": {}
            },
            {
                "species": [
                    {
                        "element": "Mg",
                        "occu": 1
                    }
                ],
                "abc": [
                    0.72335343,
                    0.75,
                    0.00841983
                ],
                "xyz": [
                    7.373095933490375,
                    4.485116415,
                    0.04010117485997999
                ],
                "label": "Mg",
                "properties": {}
            },
            {
                "species": [
                    {
                        "element": "Mg",
                        "occu": 1
                    }
                ],
                "abc": [
                    0.77664657,
                    0.25,
                    0.50841983
                ],
                "xyz": [
                    7.916309551509625,
                    1.495038805,
                    2.42145417485998
                ],
                "label": "Mg",
                "properties": {}
            },
            {
                "species": [
                    {
                        "element": "Mg",
                        "occu": 1
                    }
                ],
                "abc": [
                    0.27664657,
                    0.25,
                    0.99158017
                ],
                "xyz": [
                    2.819841056509624,
                    1.495038805,
                    4.72260482514002
                ],
                "label": "Mg",
                "properties": {}
            },
            {
                "species": [
                    {
                        "element": "Mg",
                        "occu": 1
                    }
                ],
                "abc": [
                    0.22335343,
                    0.75,
                    0.49158017
                ],
                "xyz": [
                    2.2766274384903755,
                    4.485116415,
                    2.3412518251400196
                ],
                "label": "Mg",
                "properties": {}
            },
            {
                "species": [
                    {
                        "element": "Si",
                        "occu": 1
                    }
                ],
                "abc": [
                    0.40623227,
                    0.75,
                    0.92693339
                ],
                "xyz": [
                    4.140699931414667,
                    4.485116415,
                    4.4147112181533394
                ],
                "label": "Si",
                "properties": {}
            },
            {
                "species": [
                    {
                        "element": "Si",
                        "occu": 1
                    }
                ],
                "abc": [
                    0.09376773,
                    0.25,
                    0.42693339
                ],
                "xyz": [
                    0.9557685635853326,
                    1.495038805,
                    2.03335821815334
                ],
                "label": "Si",
                "properties": {}
            },
            {
                "species": [
                    {
                        "element": "Si",
                        "occu": 1
                    }
                ],
                "abc": [
                    0.59376773,
                    0.25,
                    0.07306661
                ],
                "xyz": [
                    6.052237058585333,
                    1.495038805,
                    0.34799478184666
                ],
                "label": "Si",
                "properties": {}
            },
            {
                "species": [
                    {
                        "element": "Si",
                        "occu": 1
                    }
                ],
                "abc": [
                    0.90623227,
                    0.75,
                    0.57306661
                ],
                "xyz": [
                    9.237168426414666,
                    4.485116415,
                    2.72934778184666
                ],
                "label": "Si",
                "properties": {}
            },
            {
                "species": [
                    {
                        "element": "O",
                        "occu": 1
                    }
                ],
                "abc": [
                    0.16340615,
                    0.46832486,
                    0.27593152
                ],
                "xyz": [
                    1.6655885907284884,
                    2.8006553561847696,
                    1.3141807058931199
                ],
                "label": "O",
                "properties": {}
            },
            {
                "species": [
                    {
                        "element": "O",
                        "occu": 1
                    }
                ],
                "abc": [
                    0.33659385,
                    0.53167514,
                    0.77593152
                ],
                "xyz": [
                    3.430879904271512,
                    3.179499863815231,
                    3.6955337058931197
                ],
                "label": "O",
                "properties": {}
            },
            {
                "species": [
                    {
                        "element": "O",
                        "occu": 1
                    }
                ],
                "abc": [
                    0.83659385,
                    0.96832486,
                    0.72406848
                ],
                "xyz": [
                    8.527348399271512,
                    5.790732966184769,
                    3.44852529410688
                ],
                "label": "O",
                "properties": {}
            },
            {
                "species": [
                    {
                        "element": "O",
                        "occu": 1
                    }
                ],
                "abc": [
                    0.66340615,
                    0.03167514,
                    0.22406848
                ],
                "xyz": [
                    6.762057085728489,
                    0.18942225381523078,
                    1.06717229410688
                ],
                "label": "O",
                "properties": {}
            },
            {
                "species": [
                    {
                        "element": "O",
                        "occu": 1
                    }
                ],
                "abc": [
                    0.83659385,
                    0.53167514,
                    0.72406848
                ],
                "xyz": [
                    8.527348399271512,
                    3.179499863815231,
                    3.44852529410688
                ],
                "label": "O",
                "properties": {}
            },
            {
                "species": [
                    {
                        "element": "O",
                        "occu": 1
                    }
                ],
                "abc": [
                    0.66340615,
                    0.46832486,
                    0.22406848
                ],
                "xyz": [
                    6.762057085728489,
                    2.8006553561847696,
                    1.06717229410688
                ],
                "label": "O",
                "properties": {}
            },
            {
                "species": [
                    {
                        "element": "O",
                        "occu": 1
                    }
                ],
                "abc": [
                    0.16340615,
                    0.03167514,
                    0.27593152
                ],
                "xyz": [
                    1.6655885907284884,
                    0.18942225381523078,
                    1.3141807058931199
                ],
                "label": "O",
                "properties": {}
            },
            {
                "species": [
                    {
                        "element": "O",
                        "occu": 1
                    }
                ],
                "abc": [
                    0.33659385,
                    0.96832486,
                    0.77593152
                ],
                "xyz": [
                    3.430879904271512,
                    5.790732966184769,
                    3.6955337058931197
                ],
                "label": "O",
                "properties": {}
            },
            {
                "species": [
                    {
                        "element": "O",
                        "occu": 1
                    }
                ],
                "abc": [
                    0.55423132,
                    0.75,
                    0.77773163
                ],
                "xyz": [
                    5.6492449226445265,
                    4.485116415,
                    3.7041071005907797
                ],
                "label": "O",
                "properties": {}
            },
            {
                "species": [
                    {
                        "element": "O",
                        "occu": 1
                    }
                ],
                "abc": [
                    0.94576868,
                    0.25,
                    0.27773163
                ],
                "xyz": [
                    9.640160562355474,
                    1.495038805,
                    1.32275410059078
                ],
                "label": "O",
                "properties": {}
            },
            {
                "species": [
                    {
                        "element": "O",
                        "occu": 1
                    }
                ],
                "abc": [
                    0.44576868,
                    0.25,
                    0.22226837
                ],
                "xyz": [
                    4.543692067355472,
                    1.495038805,
                    1.05859889940922
                ],
                "label": "O",
                "properties": {}
            },
            {
                "species": [
                    {
                        "element": "O",
                        "occu": 1
                    }
                ],
                "abc": [
                    0.05423132,
                    0.75,
                    0.72226837
                ],
                "xyz": [
                    0.5527764276445268,
                    4.485116415,
                    3.4399518994092197
                ],
                "label": "O",
                "properties": {}
            },
            {
                "species": [
                    {
                        "element": "O",
                        "occu": 1
                    }
                ],
                "abc": [
                    0.40827936,
                    0.75,
                    0.26852915
                ],
                "xyz": [
                    4.1615657907975265,
                    4.485116415,
                    1.2789253938799
                ],
                "label": "O",
                "properties": {}
            },
            {
                "species": [
                    {
                        "element": "O",
                        "occu": 1
                    }
                ],
                "abc": [
                    0.09172064,
                    0.25,
                    0.76852915
                ],
                "xyz": [
                    0.9349027042024737,
                    1.495038805,
                    3.6602783938798997
                ],
                "label": "O",
                "properties": {}
            },
            {
                "species": [
                    {
                        "element": "O",
                        "occu": 1
                    }
                ],
                "abc": [
                    0.59172064,
                    0.25,
                    0.73147085
                ],
                "xyz": [
                    6.031371199202473,
                    1.495038805,
                    3.4837806061200998
                ],
                "label": "O",
                "properties": {}
            },
            {
                "species": [
                    {
                        "element": "O",
                        "occu": 1
                    }
                ],
                "abc": [
                    0.90827936,
                    0.75,
                    0.23147085
                ],
                "xyz": [
                    9.258034285797526,
                    4.485116415,
                    1.1024276061201
                ],
                "label": "O",
                "properties": {}
            }
        ]
    },
    "spacegroup": {
        "source": "spglib",
        "symbol": "Pnma",
        "number": 62,
        "point_group": "mmm",
        "crystal_system": "orthorhombic",
        "hall": "-P 2ac 2n"
    },
    "dielectric": {
        "epsilon_ionic": [
            [
                4.59574063,
                -1e-08,
                0.0
            ],
            [
                -1e-08,
                3.95945989,
                -0.0
            ],
            [
                0.0,
                -0.0,
                4.0726729
            ]
        ],
        "epsilon_ionic_avg": 4.20929114,
        "epsilon_ionic_eig": [
            4.59574063,
            3.95945989,
            4.0726729
        ],
        "epsilon_electronic": [
            [
                2.80497285,
                0.0,
                0.0
            ],
            [
                0.0,
                2.86119697,
                0.0
            ],
            [
                0.0,
                -0.0,
                2.92319048
            ]
        ],
        "epsilon_electronic_avg": 2.8631201,
        "epsilon_electronic_eig": [
            2.80497285,
            2.86119697,
            2.92319048
        ]
    },
    "phonon": {
        "lowest_freq": -0.08148204569385678,
        "frequency": [
            -0.08148204569385678,
            -0.05489321622884542,
            -0.05138264699023219,
            2.965694610688996,
            4.249844349537838,
            5.060512341810201,
            5.3203593896773915,
            5.483936750373136,
            5.512767628966414,
            5.7650593748032595,
            5.839577359434328,
            6.396145109174541,
            6.508212212740849,
            6.953707315511704,
            7.175921544149767,
            7.474570738108529,
            8.060929156607324,
            8.113847645039678,
            8.18231458941149,
            8.290232712826908,
            8.481763277870206,
            8.512091487911416,
            8.533728798321723,
            8.594910108501967,
            8.868199357049463,
            9.145329050285993,
            9.298560791313562,
            9.3365663590316,
            9.410026106803857,
            9.500512014900744,
            9.672549562602121,
            9.931958875796349,
            10.180639246828465,
            10.336709668457466,
            10.458534785326195,
            10.870873727169005,
            11.115425687689983,
            11.20569523740744,
            11.268402010803394,
            11.278133405730873,
            11.52980748289268,
            11.799522786323346,
            12.084726808346632,
            12.093815048814601,
            12.306510430715367,
            12.363719648578671,
            12.495135199306725,
            12.610105070674532,
            12.809774778159962,
            12.887855542554357,
            13.421953637382735,
            13.88200211249998,
            13.917641963013393,
            14.001573392740982,
            14.560882626311034,
            14.765454328224312,
            14.775697223264645,
            14.779877595664647,
            15.355629563612565,
            15.421671816748646,
            15.572082546092613,
            16.6526563254216,
            16.708468005710156,
            16.937912793646362,
            17.525717024606763,
            17.580174715816423,
            18.21294222583781,
            18.252077190749787,
            24.076333097513146,
            24.26322234874024,
            24.29145662716824,
            24.405891952523397,
            24.992474876247584,
            25.252942983134044,
            25.58045395832422,
            25.606108814423443,
            25.816014857222573,
            26.62238507727013,
            26.914252949783783,
            28.084752818683214,
            28.30727540379572,
            28.602856087669196,
            28.614263126190835,
            28.89539083917697
        ]
    },
    "born_effective_charge": {
        "avg_abs_trace": 1.9760130952380952,
        "tensors": [
            [
                [
                    1.73024,
                    0.2764,
                    0.09173
                ],
                [
                    0.24113,
                    1.98266,
                    0.15169
                ],
                [
                    -0.00405,
                    -0.01067,
                    2.22129
                ]
            ],
            [
                [
                    1.73024,
                    0.2764,
                    -0.09173
                ],
                [
                    0.24113,
                    1.98266,
                    -0.15169
                ],
                [
                    0.00405,
                    0.01067,
                    2.22129
                ]
            ],
            [
                [
                    1.73024,
                    -0.2764,
                    0.09173
                ],
                [
                    -0.24113,
                    1.98266,
                    -0.15169
                ],
                [
                    -0.00405,
                    0.01067,
                    2.22129
                ]
            ],
            [
                [
                    1.73024,
                    -0.2764,
                    -0.09173
                ],
                [
                    -0.24113,
                    1.98266,
                    0.15169
                ],
                [
                    0.00405,
                    -0.01067,
                    2.22129
                ]
            ],
            [
                [
                    2.31195,
                    0.0,
                    -0.0863
                ],
                [
                    -1e-05,
                    2.0688,
                    -0.0
                ],
                [
                    0.01852,
                    -0.0,
                    1.96166
                ]
            ],
            [
                [
                    2.31195,
                    0.0,
                    0.0863
                ],
                [
                    1e-05,
                    2.0688,
                    -0.0
                ],
                [
                    -0.01852,
                    -0.0,
                    1.96166
                ]
            ],
            [
                [
                    2.31195,
                    0.0,
                    -0.0863
                ],
                [
                    1e-05,
                    2.0688,
                    0.0
                ],
                [
                    0.0185,
                    -0.0,
                    1.96166
                ]
            ],
            [
                [
                    2.31195,
                    0.0,
                    0.0863
                ],
                [
                    -1e-05,
                    2.0688,
                    0.0
                ],
                [
                    -0.0185,
                    -0.0,
                    1.96166
                ]
            ],
            [
                [
                    2.5764,
                    0.0,
                    0.02562
                ],
                [
                    4e-05,
                    2.87845,
                    9e-05
                ],
                [
                    0.00843,
                    -0.0,
                    3.01662
                ]
            ],
            [
                [
                    2.57641,
                    0.0,
                    -0.02561
                ],
                [
                    -4e-05,
                    2.87845,
                    9e-05
                ],
                [
                    -0.00843,
                    -0.0,
                    3.01662
                ]
            ],
            [
                [
                    2.57641,
                    0.0,
                    0.02561
                ],
                [
                    -4e-05,
                    2.87845,
                    -9e-05
                ],
                [
                    0.00843,
                    -0.0,
                    3.01675
                ]
            ],
            [
                [
                    2.5764,
                    0.0,
                    -0.02562
                ],
                [
                    4e-05,
                    2.87845,
                    -9e-05
                ],
                [
                    -0.00843,
                    -0.0,
                    3.01675
                ]
            ],
            [
                [
                    -1.61044,
                    -0.21633,
                    0.11152
                ],
                [
                    -0.24107,
                    -1.94327,
                    0.10586
                ],
                [
                    0.08961,
                    0.03661,
                    -1.59868
                ]
            ],
            [
                [
                    -1.6104,
                    -0.21632,
                    -0.11147
                ],
                [
                    -0.24126,
                    -1.9434,
                    -0.10603
                ],
                [
                    -0.08961,
                    -0.03661,
                    -1.59868
                ]
            ],
            [
                [
                    -1.6104,
                    0.21632,
                    0.11147
                ],
                [
                    0.24107,
                    -1.94327,
                    -0.10586
                ],
                [
                    0.0897,
                    -0.03671,
                    -1.59867
                ]
            ],
            [
                [
                    -1.61044,
                    0.21633,
                    -0.11152
                ],
                [
                    0.24126,
                    -1.9434,
                    0.10603
                ],
                [
                    -0.0897,
                    0.03671,
                    -1.59867
                ]
            ],
            [
                [
                    -1.6104,
                    -0.21632,
                    0.11147
                ],
                [
                    -0.24126,
                    -1.9434,
                    0.10603
                ],
                [
                    0.0897,
                    0.03671,
                    -1.59867
                ]
            ],
            [
                [
                    -1.61044,
                    -0.21633,
                    -0.11152
                ],
                [
                    -0.24107,
                    -1.94327,
                    -0.10586
                ],
                [
                    -0.0897,
                    -0.03671,
                    -1.59867
                ]
            ],
            [
                [
                    -1.61044,
                    0.21633,
                    0.11152
                ],
                [
                    0.24126,
                    -1.9434,
                    -0.10603
                ],
                [
                    0.08961,
                    -0.03661,
                    -1.59868
                ]
            ],
            [
                [
                    -1.6104,
                    0.21632,
                    -0.11147
                ],
                [
                    0.24107,
                    -1.94327,
                    0.10586
                ],
                [
                    -0.08961,
                    0.03661,
                    -1.59868
                ]
            ],
            [
                [
                    -1.99439,
                    0.0,
                    0.13057
                ],
                [
                    -7e-05,
                    -1.55011,
                    2e-05
                ],
                [
                    0.07502,
                    -0.0,
                    -1.63049
                ]
            ],
            [
                [
                    -1.99475,
                    0.0,
                    -0.13067
                ],
                [
                    7e-05,
                    -1.55011,
                    2e-05
                ],
                [
                    -0.07502,
                    -0.0,
                    -1.63049
                ]
            ],
            [
                [
                    -1.99475,
                    0.0,
                    0.13067
                ],
                [
                    7e-05,
                    -1.55011,
                    -2e-05
                ],
                [
                    0.07505,
                    -0.0,
                    -1.63048
                ]
            ],
            [
                [
                    -1.99439,
                    0.0,
                    -0.13057
                ],
                [
                    -7e-05,
                    -1.55011,
                    -2e-05
                ],
                [
                    -0.07505,
                    -0.0,
                    -1.63048
                ]
            ],
            [
                [
                    -1.40321,
                    0.0,
                    -0.00329
                ],
                [
                    3e-05,
                    -1.49313,
                    -7e-05
                ],
                [
                    -0.00535,
                    -0.0,
                    -2.37173
                ]
            ],
            [
                [
                    -1.40316,
                    0.0,
                    0.00325
                ],
                [
                    -3e-05,
                    -1.49313,
                    -7e-05
                ],
                [
                    0.00535,
                    -0.0,
                    -2.37173
                ]
            ],
            [
                [
                    -1.40316,
                    0.0,
                    -0.00325
                ],
                [
                    -3e-05,
                    -1.49313,
                    7e-05
                ],
                [
                    -0.00529,
                    -0.0,
                    -2.37186
                ]
            ],
            [
                [
                    -1.40321,
                    0.0,
                    0.00329
                ],
                [
                    3e-05,
                    -1.49313,
                    7e-05
                ],
                [
                    0.00529,
                    -0.0,
                    -2.37186
                ]
            ]
        ]
    },
    "band_gap": 4.71,
    "is_direct": true,
    "formula": "Mg2SiO4"
}