{
    "mp_id": "mp-27197",
    "nelements": 3,
    "nsites": 26,
    "elements": [
        "As",
        "Na",
        "O"
    ],
    "structure": {
        "@module": "pymatgen.core.structure",
        "@class": "Structure",
        "charge": null,
        "lattice": {
            "matrix": [
                [
                    2.97457764,
                    -5.02741634,
                    0.0006681
                ],
                [
                    2.97457764,
                    5.02741634,
                    0.0006681
                ],
                [
                    -0.58935983,
                    0.0,
                    12.23676735
                ]
            ],
            "a": 5.8414919017700075,
            "b": 5.8414919017700075,
            "c": 12.250951807400257,
            "alpha": 91.39716558690797,
            "beta": 91.39716558690797,
            "gamma": 118.77683407941251,
            "volume": 365.9919710387918
        },
        "sites": [
            {
                "species": [
                    {
                        "element": "Na",
                        "occu": 1
                    }
                ],
                "abc": [
                    0.33297951,
                    0.98194292,
                    0.37166874
                ],
                "xyz": [
                    3.692292233189751,
                    3.2626092514961194,
                    4.548902402323122
                ],
                "label": "Na",
                "properties": {}
            },
            {
                "species": [
                    {
                        "element": "Na",
                        "occu": 1
                    }
                ],
                "abc": [
                    0.01805708,
                    0.66702049,
                    0.12833126
                ],
                "xyz": [
                    1.9621831318102492,
                    3.2626092514961194,
                    1.570817472676878
                ],
                "label": "Na",
                "properties": {}
            },
            {
                "species": [
                    {
                        "element": "Na",
                        "occu": 1
                    }
                ],
                "abc": [
                    0.66702049,
                    0.01805708,
                    0.62833126
                ],
                "xyz": [
                    1.6675032168102493,
                    -3.2626092514961194,
                    7.689201147676878
                ],
                "label": "Na",
                "properties": {}
            },
            {
                "species": [
                    {
                        "element": "Na",
                        "occu": 1
                    }
                ],
                "abc": [
                    0.98194292,
                    0.33297951,
                    0.87166874
                ],
                "xyz": [
                    3.397612318189751,
                    -3.2626092514961194,
                    10.667286077323123
                ],
                "label": "Na",
                "properties": {}
            },
            {
                "species": [
                    {
                        "element": "Na",
                        "occu": 1
                    }
                ],
                "abc": [
                    0.70192385,
                    0.68082845,
                    0.40476959
                ],
                "xyz": [
                    3.8745491364870026,
                    -0.10605535865883597,
                    4.953995119996517
                ],
                "label": "Na",
                "properties": {}
            },
            {
                "species": [
                    {
                        "element": "Na",
                        "occu": 1
                    }
                ],
                "abc": [
                    0.31917155,
                    0.29807615,
                    0.09523041
                ],
                "xyz": [
                    1.7799262285129978,
                    -0.10605535865883642,
                    1.1657247550034835
                ],
                "label": "Na",
                "properties": {}
            },
            {
                "species": [
                    {
                        "element": "Na",
                        "occu": 1
                    }
                ],
                "abc": [
                    0.29807615,
                    0.31917155,
                    0.59523041
                ],
                "xyz": [
                    1.4852463135129979,
                    0.10605535865883642,
                    7.284108430003482
                ],
                "label": "Na",
                "properties": {}
            },
            {
                "species": [
                    {
                        "element": "Na",
                        "occu": 1
                    }
                ],
                "abc": [
                    0.68082845,
                    0.70192385,
                    0.90476959
                ],
                "xyz": [
                    3.5798692214870025,
                    0.10605535865883597,
                    11.072378794996515
                ],
                "label": "Na",
                "properties": {}
            },
            {
                "species": [
                    {
                        "element": "As",
                        "occu": 1
                    }
                ],
                "abc": [
                    0.7011701,
                    0.00946379,
                    0.13783977
                ],
                "xyz": [
                    2.0325984560057804,
                    -3.477495605375106,
                    1.6871879715694182
                ],
                "label": "As",
                "properties": {}
            },
            {
                "species": [
                    {
                        "element": "As",
                        "occu": 1
                    }
                ],
                "abc": [
                    0.99053621,
                    0.2988299,
                    0.36216023
                ],
                "xyz": [
                    3.6218769089942198,
                    -3.477495605375106,
                    4.432531903430582
                ],
                "label": "As",
                "properties": {}
            },
            {
                "species": [
                    {
                        "element": "As",
                        "occu": 1
                    }
                ],
                "abc": [
                    0.2988299,
                    0.99053621,
                    0.86216023
                ],
                "xyz": [
                    3.32719699399422,
                    3.477495605375106,
                    10.55091557843058
                ],
                "label": "As",
                "properties": {}
            },
            {
                "species": [
                    {
                        "element": "As",
                        "occu": 1
                    }
                ],
                "abc": [
                    0.00946379,
                    0.7011701,
                    0.63783977
                ],
                "xyz": [
                    1.7379185410057805,
                    3.477495605375106,
                    7.805571646569419
                ],
                "label": "As",
                "properties": {}
            },
            {
                "species": [
                    {
                        "element": "O",
                        "occu": 1
                    }
                ],
                "abc": [
                    0.93467242,
                    0.06532758,
                    0.25
                ],
                "xyz": [
                    2.8272376825000003,
                    -4.370558453710686,
                    3.0598599374999997
                ],
                "label": "O",
                "properties": {}
            },
            {
                "species": [
                    {
                        "element": "O",
                        "occu": 1
                    }
                ],
                "abc": [
                    0.06532758,
                    0.93467242,
                    0.75
                ],
                "xyz": [
                    2.5325577675,
                    4.370558453710686,
                    9.1782436125
                ],
                "label": "O",
                "properties": {}
            },
            {
                "species": [
                    {
                        "element": "O",
                        "occu": 1
                    }
                ],
                "abc": [
                    0.88945781,
                    0.2497946,
                    0.05458934
                ],
                "xyz": [
                    3.3566219809599,
                    -3.2158532740508514,
                    0.66875818790517
                ],
                "label": "O",
                "properties": {}
            },
            {
                "species": [
                    {
                        "element": "O",
                        "occu": 1
                    }
                ],
                "abc": [
                    0.7502054,
                    0.11054219,
                    0.44541066
                ],
                "xyz": [
                    2.2978533840401,
                    -3.2158532740508514,
                    5.45096168709483
                ],
                "label": "O",
                "properties": {}
            },
            {
                "species": [
                    {
                        "element": "O",
                        "occu": 1
                    }
                ],
                "abc": [
                    0.11054219,
                    0.7502054,
                    0.94541066
                ],
                "xyz": [
                    2.0031734690401004,
                    3.2158532740508514,
                    11.569345362094829
                ],
                "label": "O",
                "properties": {}
            },
            {
                "species": [
                    {
                        "element": "O",
                        "occu": 1
                    }
                ],
                "abc": [
                    0.2497946,
                    0.88945781,
                    0.55458934
                ],
                "xyz": [
                    3.0619420659599,
                    3.2158532740508514,
                    6.78714186290517
                ],
                "label": "O",
                "properties": {}
            },
            {
                "species": [
                    {
                        "element": "O",
                        "occu": 1
                    }
                ],
                "abc": [
                    0.6404613,
                    0.70969854,
                    0.09205123
                ],
                "xyz": [
                    3.9619039732258874,
                    0.34808443171250136,
                    1.1273115275804444
                ],
                "label": "O",
                "properties": {}
            },
            {
                "species": [
                    {
                        "element": "O",
                        "occu": 1
                    }
                ],
                "abc": [
                    0.29030146,
                    0.3595387,
                    0.40794877
                ],
                "xyz": [
                    1.6925713917741132,
                    0.3480844317125016,
                    4.9924083474195555
                ],
                "label": "O",
                "properties": {}
            },
            {
                "species": [
                    {
                        "element": "O",
                        "occu": 1
                    }
                ],
                "abc": [
                    0.3595387,
                    0.29030146,
                    0.90794877
                ],
                "xyz": [
                    1.3978914767741133,
                    -0.3480844317125016,
                    11.110792022419554
                ],
                "label": "O",
                "properties": {}
            },
            {
                "species": [
                    {
                        "element": "O",
                        "occu": 1
                    }
                ],
                "abc": [
                    0.70969854,
                    0.6404613,
                    0.59205123
                ],
                "xyz": [
                    3.6672240582258873,
                    -0.34808443171250136,
                    7.245695202580444
                ],
                "label": "O",
                "properties": {}
            },
            {
                "species": [
                    {
                        "element": "O",
                        "occu": 1
                    }
                ],
                "abc": [
                    0.43911155,
                    0.02400892,
                    0.18574668
                ],
                "xyz": [
                    1.2681161629404265,
                    -2.086893744838975,
                    2.273248319980905
                ],
                "label": "O",
                "properties": {}
            },
            {
                "species": [
                    {
                        "element": "O",
                        "occu": 1
                    }
                ],
                "abc": [
                    0.97599108,
                    0.56088845,
                    0.31425332
                ],
                "xyz": [
                    4.386359202059573,
                    -2.0868937448389744,
                    3.8464715550190944
                ],
                "label": "O",
                "properties": {}
            },
            {
                "species": [
                    {
                        "element": "O",
                        "occu": 1
                    }
                ],
                "abc": [
                    0.56088845,
                    0.97599108,
                    0.81425332
                ],
                "xyz": [
                    4.0916792870595735,
                    2.0868937448389744,
                    9.964855230019094
                ],
                "label": "O",
                "properties": {}
            },
            {
                "species": [
                    {
                        "element": "O",
                        "occu": 1
                    }
                ],
                "abc": [
                    0.02400892,
                    0.43911155,
                    0.68574668
                ],
                "xyz": [
                    0.9734362479404264,
                    2.086893744838975,
                    8.391631994980905
                ],
                "label": "O",
                "properties": {}
            }
        ]
    },
    "spacegroup": {
        "source": "spglib",
        "symbol": "C2/c",
        "number": 15,
        "point_group": "2/m",
        "crystal_system": "monoclinic",
        "hall": "-C 2yc"
    },
    "dielectric": {
        "epsilon_ionic": [
            [
                3.03864914,
                2.8e-07,
                0.33534568
            ],
            [
                2.8e-07,
                3.15483759,
                6e-08
            ],
            [
                0.33534568,
                6e-08,
                3.74641428
            ]
        ],
        "epsilon_ionic_avg": 3.313300336666666,
        "epsilon_ionic_eig": [
            3.880065912333027,
            2.90499750766678,
            3.154837590000192
        ],
        "epsilon_electronic": [
            [
                2.54817086,
                0.0,
                0.05756275
            ],
            [
                0.0,
                2.50681138,
                0.0
            ],
            [
                0.05756458,
                0.0,
                2.60656338
            ]
        ],
        "epsilon_electronic_avg": 2.55384854,
        "epsilon_electronic_eig": [
            2.5128225840160563,
            2.6419116559839435,
            2.50681138
        ]
    },
    "phonon": {
        "lowest_freq": -0.09944124740013076,
        "frequency": [
            -0.09944124740013076,
            -0.0498441076507023,
            -0.03542744729614247,
            1.601459196271013,
            1.7568455916133803,
            1.8120250808604328,
            2.0177072093957036,
            2.0196817564691356,
            2.3982366892574216,
            2.7214699713612593,
            2.7922868754392067,
            3.168981967756178,
            3.863593036705844,
            3.917881146043699,
            4.109787864586696,
            4.144107251984236,
            4.513690628143471,
            4.536298830572511,
            4.8025829105906785,
            5.123252580499151,
            5.157246347026289,
            5.206162249653233,
            5.236193816843412,
            5.450754702294234,
            5.480757632348705,
            5.585844675849331,
            5.661243513498194,
            5.709721527986191,
            5.75626592774583,
            5.76692866050888,
            5.859226903067598,
            6.0198762832997,
            6.121649503418773,
            6.360369407841673,
            6.381412768501333,
            6.448429157922421,
            6.5317400285871745,
            6.612857290280275,
            6.94142486145512,
            7.011345573671123,
            7.029130737275936,
            7.031754657662409,
            7.632973349608592,
            8.039701681359594,
            8.266963917911658,
            8.342319188588048,
            8.551486357800657,
            8.609003120222836,
            9.427411340025197,
            9.644190491276037,
            9.903997176668376,
            10.292971189329899,
            10.491734477420671,
            10.91343196180702,
            10.973728550581841,
            11.154192383655479,
            11.159249349767007,
            11.435128502389746,
            11.568936452820186,
            12.266665527958217,
            12.458417775249881,
            12.677764967923464,
            15.986115853017056,
            15.9972781296713,
            20.588664930086694,
            21.97575714399492,
            24.54775040570032,
            24.574284980797817,
            24.868926582851238,
            24.87102064313515,
            25.53582693846579,
            25.66750674040903,
            25.68792914745997,
            25.7877802878194,
            25.798843682610002,
            26.02494162184722,
            26.07051829023211,
            26.189092240654094
        ]
    },
    "born_effective_charge": {
        "avg_abs_trace": 1.5523947435897436,
        "tensors": [
            [
                [
                    1.10815,
                    -0.10187,
                    -0.10171
                ],
                [
                    0.02556,
                    1.08554,
                    0.11477
                ],
                [
                    -0.09374,
                    -0.00833,
                    1.08256
                ]
            ],
            [
                [
                    1.10813,
                    0.10185,
                    -0.10172
                ],
                [
                    -0.02556,
                    1.08554,
                    -0.11477
                ],
                [
                    -0.09373,
                    0.00832,
                    1.08255
                ]
            ],
            [
                [
                    1.10813,
                    -0.10185,
                    -0.10172
                ],
                [
                    0.02556,
                    1.08553,
                    0.11477
                ],
                [
                    -0.09373,
                    -0.00832,
                    1.08255
                ]
            ],
            [
                [
                    1.10815,
                    0.10187,
                    -0.10171
                ],
                [
                    -0.02556,
                    1.08553,
                    -0.11477
                ],
                [
                    -0.09374,
                    0.00833,
                    1.08256
                ]
            ],
            [
                [
                    1.08255,
                    0.09729,
                    0.05008
                ],
                [
                    -0.02314,
                    1.10993,
                    -0.0454
                ],
                [
                    0.00777,
                    -0.08262,
                    1.03668
                ]
            ],
            [
                [
                    1.08254,
                    -0.0973,
                    0.05009
                ],
                [
                    0.02314,
                    1.10993,
                    0.0454
                ],
                [
                    0.00777,
                    0.08263,
                    1.03668
                ]
            ],
            [
                [
                    1.08254,
                    0.0973,
                    0.05009
                ],
                [
                    -0.02313,
                    1.10993,
                    -0.0454
                ],
                [
                    0.00777,
                    -0.08263,
                    1.03668
                ]
            ],
            [
                [
                    1.08255,
                    -0.09729,
                    0.05008
                ],
                [
                    0.02313,
                    1.10993,
                    0.0454
                ],
                [
                    0.00777,
                    0.08262,
                    1.03668
                ]
            ],
            [
                [
                    2.8022,
                    -0.20912,
                    0.3253
                ],
                [
                    0.05066,
                    2.57704,
                    0.06868
                ],
                [
                    0.30181,
                    -0.34972,
                    3.25116
                ]
            ],
            [
                [
                    2.80218,
                    0.2088,
                    0.32546
                ],
                [
                    -0.05066,
                    2.57704,
                    -0.06868
                ],
                [
                    0.30177,
                    0.34968,
                    3.25119
                ]
            ],
            [
                [
                    2.80218,
                    -0.2088,
                    0.32546
                ],
                [
                    0.05068,
                    2.57716,
                    0.06882
                ],
                [
                    0.30177,
                    -0.34968,
                    3.25119
                ]
            ],
            [
                [
                    2.8022,
                    0.20912,
                    0.3253
                ],
                [
                    -0.05068,
                    2.57716,
                    -0.06882
                ],
                [
                    0.30181,
                    0.34972,
                    3.25116
                ]
            ],
            [
                [
                    -1.32162,
                    6e-05,
                    -0.77774
                ],
                [
                    0.0,
                    -1.22891,
                    0.0
                ],
                [
                    -0.87881,
                    0.0,
                    -2.52511
                ]
            ],
            [
                [
                    -1.32162,
                    -6e-05,
                    -0.77774
                ],
                [
                    0.0,
                    -1.22892,
                    0.0
                ],
                [
                    -0.87881,
                    -0.0,
                    -2.52511
                ]
            ],
            [
                [
                    -1.52492,
                    -0.0242,
                    0.21287
                ],
                [
                    -0.10334,
                    -1.08087,
                    0.08079
                ],
                [
                    0.43968,
                    0.08383,
                    -1.57498
                ]
            ],
            [
                [
                    -1.5249,
                    0.02426,
                    0.21269
                ],
                [
                    0.10334,
                    -1.08087,
                    -0.08079
                ],
                [
                    0.43977,
                    -0.08378,
                    -1.57508
                ]
            ],
            [
                [
                    -1.5249,
                    -0.02426,
                    0.21269
                ],
                [
                    -0.10276,
                    -1.08094,
                    0.08038
                ],
                [
                    0.43977,
                    0.08378,
                    -1.57508
                ]
            ],
            [
                [
                    -1.52492,
                    0.0242,
                    0.21287
                ],
                [
                    0.10276,
                    -1.08094,
                    -0.08038
                ],
                [
                    0.43968,
                    -0.08383,
                    -1.57498
                ]
            ],
            [
                [
                    -1.50884,
                    -0.38427,
                    -0.21102
                ],
                [
                    -0.38197,
                    -1.50734,
                    -0.1833
                ],
                [
                    -0.25844,
                    -0.23331,
                    -1.28627
                ]
            ],
            [
                [
                    -1.50946,
                    0.38503,
                    -0.21154
                ],
                [
                    0.38197,
                    -1.50734,
                    0.1833
                ],
                [
                    -0.25852,
                    0.23337,
                    -1.28631
                ]
            ],
            [
                [
                    -1.50946,
                    -0.38503,
                    -0.21154
                ],
                [
                    -0.38198,
                    -1.50742,
                    -0.18335
                ],
                [
                    -0.25852,
                    -0.23337,
                    -1.28631
                ]
            ],
            [
                [
                    -1.50884,
                    0.38427,
                    -0.21102
                ],
                [
                    0.38198,
                    -1.50742,
                    0.18335
                ],
                [
                    -0.25844,
                    0.23331,
                    -1.28627
                ]
            ],
            [
                [
                    -1.29827,
                    0.39815,
                    0.11385
                ],
                [
                    0.33358,
                    -1.5694,
                    -0.18867
                ],
                [
                    0.04231,
                    -0.09042,
                    -1.24647
                ]
            ],
            [
                [
                    -1.29774,
                    -0.39705,
                    0.11337
                ],
                [
                    -0.33358,
                    -1.5694,
                    0.18867
                ],
                [
                    0.04237,
                    0.09066,
                    -1.2466
                ]
            ],
            [
                [
                    -1.29774,
                    0.39705,
                    0.11337
                ],
                [
                    0.33406,
                    -1.57024,
                    -0.18912
                ],
                [
                    0.04237,
                    -0.09066,
                    -1.2466
                ]
            ],
            [
                [
                    -1.29827,
                    -0.39815,
                    0.11385
                ],
                [
                    -0.33406,
                    -1.57024,
                    0.18912
                ],
                [
                    0.04231,
                    0.09042,
                    -1.24647
                ]
            ]
        ]
    },
    "band_gap": 3.3251,
    "is_direct": false,
    "formula": "Na4As2O7"
}