{
    "mp_id": "mp-2918",
    "nelements": 3,
    "nsites": 8,
    "elements": [
        "Cu",
        "O",
        "Y"
    ],
    "structure": {
        "@module": "pymatgen.core.structure",
        "@class": "Structure",
        "charge": null,
        "lattice": {
            "matrix": [
                [
                    3.50581362,
                    0.0,
                    0.0
                ],
                [
                    -1.75290681,
                    3.0361229,
                    0.0
                ],
                [
                    0.0,
                    0.0,
                    11.27064618
                ]
            ],
            "a": 3.50581362,
            "b": 3.5058129654117014,
            "c": 11.27064618,
            "alpha": 90.0,
            "beta": 90.0,
            "gamma": 120.00000617648676,
            "volume": 119.9656710292228
        },
        "sites": [
            {
                "species": [
                    {
                        "element": "Y",
                        "occu": 1
                    }
                ],
                "abc": [
                    0.0,
                    0.0,
                    0.0
                ],
                "xyz": [
                    0.0,
                    0.0,
                    0.0
                ],
                "label": "Y",
                "properties": {}
            },
            {
                "species": [
                    {
                        "element": "Y",
                        "occu": 1
                    }
                ],
                "abc": [
                    0.0,
                    0.0,
                    0.5
                ],
                "xyz": [
                    0.0,
                    0.0,
                    5.63532309
                ],
                "label": "Y",
                "properties": {}
            },
            {
                "species": [
                    {
                        "element": "Cu",
                        "occu": 1
                    }
                ],
                "abc": [
                    0.666667,
                    0.333333,
                    0.75
                ],
                "xyz": [
                    1.7529085629068102,
                    1.0120399546257,
                    8.452984635
                ],
                "label": "Cu",
                "properties": {}
            },
            {
                "species": [
                    {
                        "element": "Cu",
                        "occu": 1
                    }
                ],
                "abc": [
                    0.333333,
                    0.666667,
                    0.25
                ],
                "xyz": [
                    -1.7529068101485024e-06,
                    2.0240829453743,
                    2.817661545
                ],
                "label": "Cu",
                "properties": {}
            },
            {
                "species": [
                    {
                        "element": "O",
                        "occu": 1
                    }
                ],
                "abc": [
                    0.333333,
                    0.666667,
                    0.40922486
                ],
                "xyz": [
                    -1.7529068101485024e-06,
                    2.0240829453743,
                    4.612228605120035
                ],
                "label": "O",
                "properties": {}
            },
            {
                "species": [
                    {
                        "element": "O",
                        "occu": 1
                    }
                ],
                "abc": [
                    0.666667,
                    0.333333,
                    0.90922486
                ],
                "xyz": [
                    1.7529085629068102,
                    1.0120399546257,
                    10.247551695120036
                ],
                "label": "O",
                "properties": {}
            },
            {
                "species": [
                    {
                        "element": "O",
                        "occu": 1
                    }
                ],
                "abc": [
                    0.333333,
                    0.666667,
                    0.09077514
                ],
                "xyz": [
                    -1.7529068101485024e-06,
                    2.0240829453743,
                    1.0230944848799652
                ],
                "label": "O",
                "properties": {}
            },
            {
                "species": [
                    {
                        "element": "O",
                        "occu": 1
                    }
                ],
                "abc": [
                    0.666667,
                    0.333333,
                    0.59077514
                ],
                "xyz": [
                    1.7529085629068102,
                    1.0120399546257,
                    6.658417574879965
                ],
                "label": "O",
                "properties": {}
            }
        ]
    },
    "spacegroup": {
        "source": "spglib",
        "symbol": "P6_3/mmc",
        "number": 194,
        "point_group": "6/mmm",
        "crystal_system": "hexagonal",
        "hall": "-P 6c 2c"
    },
    "dielectric": {
        "epsilon_ionic": [
            [
                7.10755235,
                7.2e-07,
                -0.0
            ],
            [
                7.2e-07,
                7.10762032,
                -0.0
            ],
            [
                -0.0,
                -0.0,
                3.05474408
            ]
        ],
        "epsilon_ionic_avg": 5.756638916666667,
        "epsilon_ionic_eig": [
            7.107552342373961,
            7.107620327626038,
            3.05474408
        ],
        "epsilon_electronic": [
            [
                4.7459045,
                -7.8e-07,
                0.0
            ],
            [
                -7.8e-07,
                4.74590413,
                0.0
            ],
            [
                0.0,
                0.0,
                4.29308056
            ]
        ],
        "epsilon_electronic_avg": 4.594963063333334,
        "epsilon_electronic_eig": [
            4.745905116638946,
            4.745903513361054,
            4.29308056
        ]
    },
    "phonon": {
        "lowest_freq": -0.09633503273494627,
        "frequency": [
            -0.09633503273494627,
            -0.09633501649826758,
            -0.01945571487401937,
            1.0110934218590997,
            1.0110935934793228,
            3.4234451805681534,
            3.4234457623975088,
            3.863621888213412,
            3.863622542920632,
            5.654513942522073,
            6.462627265108066,
            7.596578065114292,
            8.870386692136757,
            8.87038819374052,
            9.725001252776652,
            9.72500289886459,
            11.090361182381113,
            11.090363055540072,
            11.716021055181995,
            11.716023036913715,
            18.64405908235075,
            19.81311617525484,
            20.025818744182516,
            21.6751685461544
        ]
    },
    "born_effective_charge": {
        "avg_abs_trace": 2.172437916666667,
        "tensors": [
            [
                [
                    4.22879,
                    0.0,
                    -0.0
                ],
                [
                    -0.0,
                    4.22884,
                    -2e-05
                ],
                [
                    0.0,
                    -0.0,
                    3.15118
                ]
            ],
            [
                [
                    4.22879,
                    0.0,
                    -0.0
                ],
                [
                    -0.0,
                    4.22884,
                    2e-05
                ],
                [
                    -0.0,
                    0.0,
                    3.15118
                ]
            ],
            [
                [
                    0.0782,
                    0.00015,
                    -0.0
                ],
                [
                    -0.0,
                    0.07792,
                    -0.0
                ],
                [
                    -0.0,
                    0.0,
                    1.26966
                ]
            ],
            [
                [
                    0.0782,
                    -0.00015,
                    -0.0
                ],
                [
                    -0.0,
                    0.07801,
                    -0.0
                ],
                [
                    0.0,
                    -0.0,
                    1.26966
                ]
            ],
            [
                [
                    -2.15349,
                    -0.00045,
                    -4e-05
                ],
                [
                    0.0,
                    -2.15332,
                    -0.00012
                ],
                [
                    -0.0,
                    -0.0,
                    -2.2104
                ]
            ],
            [
                [
                    -2.15349,
                    0.00045,
                    -4e-05
                ],
                [
                    0.0,
                    -2.15349,
                    -0.0001
                ],
                [
                    0.0,
                    0.0,
                    -2.2104
                ]
            ],
            [
                [
                    -2.15349,
                    -0.00045,
                    4e-05
                ],
                [
                    0.0,
                    -2.15332,
                    0.00012
                ],
                [
                    0.0,
                    -0.0,
                    -2.21043
                ]
            ],
            [
                [
                    -2.15349,
                    0.00045,
                    4e-05
                ],
                [
                    0.0,
                    -2.15349,
                    0.0001
                ],
                [
                    -0.0,
                    0.0,
                    -2.21043
                ]
            ]
        ]
    },
    "band_gap": 3.049,
    "is_direct": false,
    "formula": "YCuO2"
}