{
    "mp_id": "mp-27914",
    "nelements": 3,
    "nsites": 28,
    "elements": [
        "Bi",
        "Na",
        "O"
    ],
    "structure": {
        "@module": "pymatgen.core.structure",
        "@class": "Structure",
        "charge": null,
        "lattice": {
            "matrix": [
                [
                    -4.77766899,
                    4.77766899,
                    4.77766899
                ],
                [
                    4.77766899,
                    -4.77766899,
                    4.77766899
                ],
                [
                    4.77766899,
                    4.77766899,
                    -4.77766899
                ]
            ],
            "a": 8.27516543242628,
            "b": 8.27516543242628,
            "c": 8.27516543242628,
            "alpha": 109.47122063449069,
            "beta": 109.47122063449069,
            "gamma": 109.47122063449069,
            "volume": 436.2226014344618
        },
        "sites": [
            {
                "species": [
                    {
                        "element": "Na",
                        "occu": 1
                    }
                ],
                "abc": [
                    0.2471234,
                    0.7213037,
                    0.7213037
                ],
                "xyz": [
                    5.71162683484116,
                    1.1806738048833658,
                    1.1806738048833654
                ],
                "label": "Na",
                "properties": {}
            },
            {
                "species": [
                    {
                        "element": "Na",
                        "occu": 1
                    }
                ],
                "abc": [
                    0.7213037,
                    0.7213037,
                    0.2471234
                ],
                "xyz": [
                    1.1806738048833658,
                    1.1806738048833658,
                    5.71162683484116
                ],
                "label": "Na",
                "properties": {}
            },
            {
                "species": [
                    {
                        "element": "Na",
                        "occu": 1
                    }
                ],
                "abc": [
                    0.7213037,
                    0.2471234,
                    0.7213037
                ],
                "xyz": [
                    1.1806738048833658,
                    5.71162683484116,
                    1.1806738048833654
                ],
                "label": "Na",
                "properties": {}
            },
            {
                "species": [
                    {
                        "element": "Na",
                        "occu": 1
                    }
                ],
                "abc": [
                    0.0,
                    0.5258197,
                    0.2786963
                ],
                "xyz": [
                    3.8437111451588395,
                    -1.1806738048833658,
                    1.1806738048833658
                ],
                "label": "Na",
                "properties": {}
            },
            {
                "species": [
                    {
                        "element": "Na",
                        "occu": 1
                    }
                ],
                "abc": [
                    0.0,
                    0.2786963,
                    0.5258197
                ],
                "xyz": [
                    3.8437111451588395,
                    1.1806738048833658,
                    -1.1806738048833658
                ],
                "label": "Na",
                "properties": {}
            },
            {
                "species": [
                    {
                        "element": "Na",
                        "occu": 1
                    }
                ],
                "abc": [
                    0.7528766,
                    0.4741803,
                    0.4741803
                ],
                "xyz": [
                    0.9339578448411601,
                    3.5969951851166337,
                    3.596995185116634
                ],
                "label": "Na",
                "properties": {}
            },
            {
                "species": [
                    {
                        "element": "Na",
                        "occu": 1
                    }
                ],
                "abc": [
                    0.4741803,
                    0.4741803,
                    0.7528766
                ],
                "xyz": [
                    3.5969951851166337,
                    3.5969951851166337,
                    0.9339578448411601
                ],
                "label": "Na",
                "properties": {}
            },
            {
                "species": [
                    {
                        "element": "Na",
                        "occu": 1
                    }
                ],
                "abc": [
                    0.5258197,
                    0.2786963,
                    0.0
                ],
                "xyz": [
                    -1.1806738048833658,
                    1.1806738048833658,
                    3.8437111451588395
                ],
                "label": "Na",
                "properties": {}
            },
            {
                "species": [
                    {
                        "element": "Na",
                        "occu": 1
                    }
                ],
                "abc": [
                    0.2786963,
                    0.0,
                    0.5258197
                ],
                "xyz": [
                    1.1806738048833658,
                    3.8437111451588395,
                    -1.1806738048833658
                ],
                "label": "Na",
                "properties": {}
            },
            {
                "species": [
                    {
                        "element": "Na",
                        "occu": 1
                    }
                ],
                "abc": [
                    0.5258197,
                    0.0,
                    0.2786963
                ],
                "xyz": [
                    -1.1806738048833658,
                    3.8437111451588395,
                    1.1806738048833658
                ],
                "label": "Na",
                "properties": {}
            },
            {
                "species": [
                    {
                        "element": "Na",
                        "occu": 1
                    }
                ],
                "abc": [
                    0.4741803,
                    0.7528766,
                    0.4741803
                ],
                "xyz": [
                    3.5969951851166337,
                    0.9339578448411601,
                    3.596995185116634
                ],
                "label": "Na",
                "properties": {}
            },
            {
                "species": [
                    {
                        "element": "Na",
                        "occu": 1
                    }
                ],
                "abc": [
                    0.2786963,
                    0.5258197,
                    0.0
                ],
                "xyz": [
                    1.1806738048833658,
                    -1.1806738048833658,
                    3.8437111451588395
                ],
                "label": "Na",
                "properties": {}
            },
            {
                "species": [
                    {
                        "element": "Bi",
                        "occu": 1
                    }
                ],
                "abc": [
                    0.0,
                    0.71838795,
                    0.0
                ],
                "xyz": [
                    3.4322198315046704,
                    -3.4322198315046704,
                    3.4322198315046704
                ],
                "label": "Bi",
                "properties": {}
            },
            {
                "species": [
                    {
                        "element": "Bi",
                        "occu": 1
                    }
                ],
                "abc": [
                    0.0,
                    0.0,
                    0.71838795
                ],
                "xyz": [
                    3.4322198315046704,
                    3.4322198315046704,
                    -3.4322198315046704
                ],
                "label": "Bi",
                "properties": {}
            },
            {
                "species": [
                    {
                        "element": "Bi",
                        "occu": 1
                    }
                ],
                "abc": [
                    0.28161205,
                    0.28161205,
                    0.28161205
                ],
                "xyz": [
                    1.3454491584953294,
                    1.3454491584953294,
                    1.3454491584953294
                ],
                "label": "Bi",
                "properties": {}
            },
            {
                "species": [
                    {
                        "element": "Bi",
                        "occu": 1
                    }
                ],
                "abc": [
                    0.71838795,
                    0.0,
                    0.0
                ],
                "xyz": [
                    -3.4322198315046704,
                    3.4322198315046704,
                    3.4322198315046704
                ],
                "label": "Bi",
                "properties": {}
            },
            {
                "species": [
                    {
                        "element": "O",
                        "occu": 1
                    }
                ],
                "abc": [
                    0.48522398,
                    0.25480779,
                    0.48522398
                ],
                "xyz": [
                    1.217387276693432,
                    3.4190918482073274,
                    1.2173872766934322
                ],
                "label": "O",
                "properties": {}
            },
            {
                "species": [
                    {
                        "element": "O",
                        "occu": 1
                    }
                ],
                "abc": [
                    0.25480779,
                    0.48522398,
                    0.48522398
                ],
                "xyz": [
                    3.4190918482073274,
                    1.217387276693432,
                    1.2173872766934322
                ],
                "label": "O",
                "properties": {}
            },
            {
                "species": [
                    {
                        "element": "O",
                        "occu": 1
                    }
                ],
                "abc": [
                    0.48522398,
                    0.48522398,
                    0.25480779
                ],
                "xyz": [
                    1.217387276693432,
                    1.217387276693432,
                    3.4190918482073274
                ],
                "label": "O",
                "properties": {}
            },
            {
                "species": [
                    {
                        "element": "O",
                        "occu": 1
                    }
                ],
                "abc": [
                    0.51477602,
                    0.76958481,
                    0.0
                ],
                "xyz": [
                    1.217392054362422,
                    -1.217392054362422,
                    6.136250909461662
                ],
                "label": "O",
                "properties": {}
            },
            {
                "species": [
                    {
                        "element": "O",
                        "occu": 1
                    }
                ],
                "abc": [
                    0.76958481,
                    0.0,
                    0.51477602
                ],
                "xyz": [
                    -1.217392054362422,
                    6.136250909461662,
                    1.217392054362422
                ],
                "label": "O",
                "properties": {}
            },
            {
                "species": [
                    {
                        "element": "O",
                        "occu": 1
                    }
                ],
                "abc": [
                    0.51477602,
                    0.0,
                    0.76958481
                ],
                "xyz": [
                    1.217392054362422,
                    6.136250909461662,
                    -1.217392054362422
                ],
                "label": "O",
                "properties": {}
            },
            {
                "species": [
                    {
                        "element": "O",
                        "occu": 1
                    }
                ],
                "abc": [
                    0.23041519,
                    0.74519221,
                    0.23041519
                ],
                "xyz": [
                    3.5602817133065683,
                    -1.358586697130652,
                    3.5602817133065674
                ],
                "label": "O",
                "properties": {}
            },
            {
                "species": [
                    {
                        "element": "O",
                        "occu": 1
                    }
                ],
                "abc": [
                    0.76958481,
                    0.51477602,
                    0.0
                ],
                "xyz": [
                    -1.217392054362422,
                    1.217392054362422,
                    6.136250909461662
                ],
                "label": "O",
                "properties": {}
            },
            {
                "species": [
                    {
                        "element": "O",
                        "occu": 1
                    }
                ],
                "abc": [
                    0.0,
                    0.51477602,
                    0.76958481
                ],
                "xyz": [
                    6.136250909461662,
                    1.217392054362422,
                    -1.217392054362422
                ],
                "label": "O",
                "properties": {}
            },
            {
                "species": [
                    {
                        "element": "O",
                        "occu": 1
                    }
                ],
                "abc": [
                    0.23041519,
                    0.23041519,
                    0.74519221
                ],
                "xyz": [
                    3.560281713306568,
                    3.560281713306568,
                    -1.3585866971306517
                ],
                "label": "O",
                "properties": {}
            },
            {
                "species": [
                    {
                        "element": "O",
                        "occu": 1
                    }
                ],
                "abc": [
                    0.74519221,
                    0.23041519,
                    0.23041519
                ],
                "xyz": [
                    -1.358586697130652,
                    3.5602817133065683,
                    3.5602817133065674
                ],
                "label": "O",
                "properties": {}
            },
            {
                "species": [
                    {
                        "element": "O",
                        "occu": 1
                    }
                ],
                "abc": [
                    0.0,
                    0.76958481,
                    0.51477602
                ],
                "xyz": [
                    6.136250909461662,
                    -1.217392054362422,
                    1.217392054362422
                ],
                "label": "O",
                "properties": {}
            }
        ]
    },
    "spacegroup": {
        "source": "spglib",
        "symbol": "I-43m",
        "number": 217,
        "point_group": "-43m",
        "crystal_system": "cubic",
        "hall": "I -4 2 3"
    },
    "dielectric": {
        "epsilon_ionic": [
            [
                3.44071357,
                8.1e-07,
                -1.92e-06
            ],
            [
                8.1e-07,
                3.44229203,
                5.2e-07
            ],
            [
                -1.92e-06,
                5.2e-07,
                3.4424111
            ]
        ],
        "epsilon_ionic_avg": 3.4418055666666656,
        "epsilon_ionic_eig": [
            3.4407135674121156,
            3.4424111044344796,
            3.4422920281534015
        ],
        "epsilon_electronic": [
            [
                3.56915651,
                0.0,
                0.0
            ],
            [
                -0.0,
                3.56915651,
                -0.0
            ],
            [
                -0.0,
                -0.0,
                3.56915651
            ]
        ],
        "epsilon_electronic_avg": 3.5691565100000004,
        "epsilon_electronic_eig": [
            3.56915651,
            3.56915651,
            3.56915651
        ]
    },
    "phonon": {
        "lowest_freq": -0.04164703246370677,
        "frequency": [
            -0.04164703246370677,
            -0.04164703246370677,
            -0.04164703246370677,
            1.9535947283441237,
            1.9535947283441237,
            1.9535947283441237,
            2.3209629729324597,
            2.3209629729324597,
            2.3209629729324597,
            2.4805935576724893,
            2.4805935576724893,
            2.7229448344281537,
            4.010848464060704,
            4.010848464060704,
            4.010848464060704,
            4.1257260292519415,
            4.1257260292519415,
            4.1257260292519415,
            4.355637029989253,
            4.582543285244053,
            4.582543285244053,
            4.582543285244053,
            5.220783252778633,
            5.220783252778633,
            5.220783252778633,
            5.25836560043819,
            5.25836560043819,
            5.25836560043819,
            5.369175854331241,
            5.369175854331241,
            5.619362557895256,
            5.619362557895256,
            5.619362557895256,
            5.691927634892493,
            5.691927634892493,
            5.691927634892493,
            5.824687162330863,
            6.094267680175951,
            6.094267680175951,
            6.094267680175951,
            6.123228070609606,
            6.623009913194569,
            6.623009913194569,
            6.623009913194569,
            6.721093006474576,
            6.721093006474576,
            6.721093006474576,
            7.0191347207048675,
            7.0191347207048675,
            7.059239372837264,
            7.059239372837264,
            7.171307519817803,
            7.171307519817803,
            7.171307519817803,
            7.220639338672094,
            7.220639338672094,
            7.220639338672094,
            7.501087598643812,
            7.835903823238993,
            7.835903823238993,
            8.42210132156515,
            8.42210132156515,
            8.42210132156515,
            9.113432187404909,
            9.130708038674422,
            9.130708038674422,
            9.346767641954633,
            9.346767641954633,
            9.346767641954633,
            9.556437113714184,
            9.556437113714184,
            9.556437113714184,
            16.196967395506267,
            16.196967395506267,
            16.196967395506267,
            17.011928226288852,
            17.011928226288852,
            17.011928226288852,
            17.173036729302954,
            17.173036729302954,
            17.717481801679412,
            17.717481801679412,
            17.717481801679412,
            18.67741772536198
        ]
    },
    "born_effective_charge": {
        "avg_abs_trace": 1.4801247619047617,
        "tensors": [
            [
                [
                    1.16242,
                    -0.1635,
                    -0.1635
                ],
                [
                    -0.02589,
                    1.00838,
                    0.16428
                ],
                [
                    -0.02573,
                    0.16421,
                    1.00825
                ]
            ],
            [
                [
                    1.0084,
                    0.16353,
                    -0.02635
                ],
                [
                    0.16428,
                    1.00838,
                    -0.02589
                ],
                [
                    -0.16435,
                    -0.16435,
                    1.1627
                ]
            ],
            [
                [
                    1.0084,
                    -0.02635,
                    0.16353
                ],
                [
                    -0.16429,
                    1.16255,
                    -0.16429
                ],
                [
                    0.16421,
                    -0.02573,
                    1.00825
                ]
            ],
            [
                [
                    1.16233,
                    -0.16412,
                    0.16412
                ],
                [
                    -0.02599,
                    1.00837,
                    -0.16419
                ],
                [
                    0.02573,
                    -0.16421,
                    1.00825
                ]
            ],
            [
                [
                    1.16233,
                    0.16412,
                    -0.16412
                ],
                [
                    0.02589,
                    1.00838,
                    -0.16428
                ],
                [
                    -0.02568,
                    -0.16468,
                    1.00824
                ]
            ],
            [
                [
                    1.16242,
                    0.1635,
                    0.1635
                ],
                [
                    0.02599,
                    1.00837,
                    0.16419
                ],
                [
                    0.02568,
                    0.16468,
                    1.00824
                ]
            ],
            [
                [
                    1.00829,
                    0.16426,
                    0.02631
                ],
                [
                    0.16419,
                    1.00837,
                    0.02599
                ],
                [
                    0.16435,
                    0.16435,
                    1.1627
                ]
            ],
            [
                [
                    1.00829,
                    -0.16426,
                    -0.02631
                ],
                [
                    -0.16428,
                    1.00838,
                    0.02589
                ],
                [
                    -0.1647,
                    0.1647,
                    1.16255
                ]
            ],
            [
                [
                    1.0084,
                    0.02635,
                    -0.16353
                ],
                [
                    0.1642,
                    1.16272,
                    -0.1642
                ],
                [
                    -0.16468,
                    -0.02568,
                    1.00824
                ]
            ],
            [
                [
                    1.00829,
                    -0.02631,
                    -0.16426
                ],
                [
                    -0.1642,
                    1.16272,
                    0.1642
                ],
                [
                    -0.16421,
                    0.02573,
                    1.00825
                ]
            ],
            [
                [
                    1.00829,
                    0.02631,
                    0.16426
                ],
                [
                    0.16429,
                    1.16255,
                    0.16429
                ],
                [
                    0.16468,
                    0.02568,
                    1.00824
                ]
            ],
            [
                [
                    1.0084,
                    -0.16353,
                    0.02635
                ],
                [
                    -0.16419,
                    1.00837,
                    -0.02599
                ],
                [
                    0.1647,
                    -0.1647,
                    1.16255
                ]
            ],
            [
                [
                    2.0043,
                    0.0622,
                    -0.0622
                ],
                [
                    0.06089,
                    2.00226,
                    0.06089
                ],
                [
                    -0.0609,
                    0.0609,
                    2.00487
                ]
            ],
            [
                [
                    2.0043,
                    -0.0622,
                    0.0622
                ],
                [
                    -0.05927,
                    2.00067,
                    0.05927
                ],
                [
                    0.05902,
                    0.05902,
                    1.99964
                ]
            ],
            [
                [
                    1.99574,
                    -0.05855,
                    -0.05855
                ],
                [
                    -0.06089,
                    2.00226,
                    -0.06089
                ],
                [
                    -0.05902,
                    -0.05902,
                    1.99964
                ]
            ],
            [
                [
                    1.99574,
                    0.05855,
                    0.05855
                ],
                [
                    0.05927,
                    2.00067,
                    -0.05927
                ],
                [
                    0.0609,
                    -0.0609,
                    2.00487
                ]
            ],
            [
                [
                    -1.23692,
                    0.04999,
                    -0.03015
                ],
                [
                    -0.01941,
                    -2.70628,
                    -0.01941
                ],
                [
                    -0.03039,
                    0.04913,
                    -1.23737
                ]
            ],
            [
                [
                    -2.70464,
                    -0.02009,
                    -0.02009
                ],
                [
                    0.04951,
                    -1.23742,
                    -0.03075
                ],
                [
                    0.04913,
                    -0.03039,
                    -1.23737
                ]
            ],
            [
                [
                    -1.23692,
                    -0.03015,
                    0.04999
                ],
                [
                    -0.03075,
                    -1.23742,
                    0.04951
                ],
                [
                    -0.01994,
                    -0.01994,
                    -2.70625
                ]
            ],
            [
                [
                    -1.23692,
                    0.03015,
                    -0.04999
                ],
                [
                    0.03074,
                    -1.23716,
                    0.04934
                ],
                [
                    0.01918,
                    -0.01918,
                    -2.70678
                ]
            ],
            [
                [
                    -1.23681,
                    0.05065,
                    0.03155
                ],
                [
                    -0.01987,
                    -2.70628,
                    0.01987
                ],
                [
                    0.03039,
                    -0.04913,
                    -1.23737
                ]
            ],
            [
                [
                    -1.23692,
                    -0.04999,
                    0.03015
                ],
                [
                    0.01987,
                    -2.70628,
                    -0.01987
                ],
                [
                    0.03103,
                    0.04898,
                    -1.23748
                ]
            ],
            [
                [
                    -1.23681,
                    -0.05065,
                    -0.03155
                ],
                [
                    0.01941,
                    -2.70628,
                    0.01941
                ],
                [
                    -0.03103,
                    -0.04898,
                    -1.23748
                ]
            ],
            [
                [
                    -1.23681,
                    0.03155,
                    0.05065
                ],
                [
                    0.03075,
                    -1.23742,
                    -0.04951
                ],
                [
                    -0.01918,
                    0.01918,
                    -2.70678
                ]
            ],
            [
                [
                    -2.70608,
                    0.0189,
                    -0.0189
                ],
                [
                    -0.04951,
                    -1.23742,
                    0.03075
                ],
                [
                    0.04898,
                    0.03103,
                    -1.23748
                ]
            ],
            [
                [
                    -1.23681,
                    -0.03155,
                    -0.05065
                ],
                [
                    -0.03074,
                    -1.23716,
                    -0.04934
                ],
                [
                    0.01994,
                    0.01994,
                    -2.70625
                ]
            ],
            [
                [
                    -2.70464,
                    0.02009,
                    0.02009
                ],
                [
                    -0.04934,
                    -1.23716,
                    -0.03074
                ],
                [
                    -0.04898,
                    -0.03103,
                    -1.23748
                ]
            ],
            [
                [
                    -2.70608,
                    -0.0189,
                    0.0189
                ],
                [
                    0.04934,
                    -1.23716,
                    0.03074
                ],
                [
                    -0.04913,
                    0.03039,
                    -1.23737
                ]
            ]
        ]
    },
    "band_gap": 2.9536,
    "is_direct": false,
    "formula": "Na3BiO3"
}