{
    "mp_id": "mp-2605",
    "nelements": 2,
    "nsites": 2,
    "elements": [
        "Ca",
        "O"
    ],
    "structure": {
        "@module": "pymatgen.core.structure",
        "@class": "Structure",
        "charge": null,
        "lattice": {
            "matrix": [
                [
                    0.0,
                    2.383127,
                    2.383127
                ],
                [
                    2.383127,
                    0.0,
                    2.383127
                ],
                [
                    2.383127,
                    2.383127,
                    0.0
                ]
            ],
            "a": 3.370250524257507,
            "b": 3.370250524257507,
            "c": 3.370250524257507,
            "alpha": 60.00000000000001,
            "beta": 60.00000000000001,
            "gamma": 60.00000000000001,
            "volume": 27.06895916563454
        },
        "sites": [
            {
                "species": [
                    {
                        "element": "Ca",
                        "occu": 1
                    }
                ],
                "abc": [
                    0.0,
                    0.0,
                    0.0
                ],
                "xyz": [
                    0.0,
                    0.0,
                    0.0
                ],
                "label": "Ca",
                "properties": {}
            },
            {
                "species": [
                    {
                        "element": "O",
                        "occu": 1
                    }
                ],
                "abc": [
                    0.5,
                    0.5,
                    0.5
                ],
                "xyz": [
                    2.383127,
                    2.383127,
                    2.383127
                ],
                "label": "O",
                "properties": {}
            }
        ]
    },
    "spacegroup": {
        "source": "spglib",
        "symbol": "Fm-3m",
        "number": 225,
        "point_group": "m-3m",
        "crystal_system": "cubic",
        "hall": "-F 4 2 3"
    },
    "dielectric": {
        "epsilon_ionic": [
            [
                12.09817371,
                0.0,
                -0.0
            ],
            [
                0.0,
                12.09824751,
                0.0
            ],
            [
                -0.0,
                0.0,
                12.09372411
            ]
        ],
        "epsilon_ionic_avg": 12.09671511,
        "epsilon_ionic_eig": [
            12.09817371,
            12.09824751,
            12.09372411
        ],
        "epsilon_electronic": [
            [
                3.85845019,
                -0.0,
                -0.0
            ],
            [
                -0.0,
                3.85845019,
                -0.0
            ],
            [
                0.0,
                0.0,
                3.85845019
            ]
        ],
        "epsilon_electronic_avg": 3.8584501900000006,
        "epsilon_electronic_eig": [
            3.85845019,
            3.85845019,
            3.85845019
        ]
    },
    "phonon": {
        "lowest_freq": -0.03988715830817088,
        "frequency": [
            -0.03988715830817088,
            -0.03988715830817088,
            -0.03988715830817088,
            8.096034137899958,
            8.096034137899958,
            8.096034137899958
        ]
    },
    "born_effective_charge": {
        "avg_abs_trace": 2.36128,
        "tensors": [
            [
                [
                    2.36142,
                    0.0,
                    -0.0
                ],
                [
                    0.0,
                    2.36143,
                    0.0
                ],
                [
                    0.0,
                    0.0,
                    2.36099
                ]
            ],
            [
                [
                    -2.36142,
                    0.0,
                    0.0
                ],
                [
                    0.0,
                    -2.36143,
                    0.0
                ],
                [
                    0.0,
                    0.0,
                    -2.36099
                ]
            ]
        ]
    },
    "band_gap": 3.5473,
    "is_direct": false,
    "formula": "CaO"
}