{
    "mp_id": "mp-29305",
    "nelements": 3,
    "nsites": 33,
    "elements": [
        "O",
        "Pb",
        "Re"
    ],
    "structure": {
        "@module": "pymatgen.core.structure",
        "@class": "Structure",
        "charge": null,
        "lattice": {
            "matrix": [
                [
                    11.33524934,
                    0.0,
                    0.0
                ],
                [
                    -5.66762467,
                    9.81661361,
                    0.0
                ],
                [
                    0.0,
                    0.0,
                    4.62474396
                ]
            ],
            "a": 11.33524934,
            "b": 11.335249100396066,
            "c": 4.62474396,
            "alpha": 90.0,
            "beta": 90.0,
            "gamma": 120.00000069923779,
            "volume": 514.6126630807531
        },
        "sites": [
            {
                "species": [
                    {
                        "element": "Re",
                        "occu": 1
                    }
                ],
                "abc": [
                    0.37649691,
                    0.0,
                    0.98843074
                ],
                "xyz": [
                    4.26768635058954,
                    0.0,
                    4.57123909469333
                ],
                "label": "Re",
                "properties": {}
            },
            {
                "species": [
                    {
                        "element": "Re",
                        "occu": 1
                    }
                ],
                "abc": [
                    0.0,
                    0.37649691,
                    0.98843074
                ],
                "xyz": [
                    -2.13384317529477,
                    3.695924690828945,
                    4.57123909469333
                ],
                "label": "Re",
                "properties": {}
            },
            {
                "species": [
                    {
                        "element": "Re",
                        "occu": 1
                    }
                ],
                "abc": [
                    0.62350309,
                    0.62350309,
                    0.98843074
                ],
                "xyz": [
                    3.533781494705231,
                    6.120688919171055,
                    4.57123909469333
                ],
                "label": "Re",
                "properties": {}
            },
            {
                "species": [
                    {
                        "element": "Re",
                        "occu": 1
                    }
                ],
                "abc": [
                    0.28972191,
                    0.28972191,
                    0.49212269
                ],
                "xyz": [
                    1.6420350445555199,
                    2.844088044821195,
                    2.2759414381564524
                ],
                "label": "Re",
                "properties": {}
            },
            {
                "species": [
                    {
                        "element": "Re",
                        "occu": 1
                    }
                ],
                "abc": [
                    0.0,
                    0.71027809,
                    0.49212269
                ],
                "xyz": [
                    -4.02558962544448,
                    6.972525565178804,
                    2.2759414381564524
                ],
                "label": "Re",
                "properties": {}
            },
            {
                "species": [
                    {
                        "element": "Re",
                        "occu": 1
                    }
                ],
                "abc": [
                    0.71027809,
                    0.0,
                    0.49212269
                ],
                "xyz": [
                    8.05117925088896,
                    0.0,
                    2.2759414381564524
                ],
                "label": "Re",
                "properties": {}
            },
            {
                "species": [
                    {
                        "element": "Pb",
                        "occu": 1
                    }
                ],
                "abc": [
                    0.0,
                    0.0,
                    0.00393295
                ],
                "xyz": [
                    0.0,
                    0.0,
                    0.018188886757482002
                ],
                "label": "Pb",
                "properties": {}
            },
            {
                "species": [
                    {
                        "element": "Pb",
                        "occu": 1
                    }
                ],
                "abc": [
                    0.333333,
                    0.666667,
                    0.44791591
                ],
                "xyz": [
                    -5.667624670468996e-06,
                    6.54441234553787,
                    2.0714963993604036
                ],
                "label": "Pb",
                "properties": {}
            },
            {
                "species": [
                    {
                        "element": "Pb",
                        "occu": 1
                    }
                ],
                "abc": [
                    0.666667,
                    0.333333,
                    0.44791591
                ],
                "xyz": [
                    5.66763033762467,
                    3.2722012644621294,
                    2.0714963993604036
                ],
                "label": "Pb",
                "properties": {}
            },
            {
                "species": [
                    {
                        "element": "O",
                        "occu": 1
                    }
                ],
                "abc": [
                    0.61886356,
                    0.61886356,
                    0.61467718
                ],
                "xyz": [
                    3.5074863800200253,
                    6.075144445829051,
                    2.842724575554833
                ],
                "label": "O",
                "properties": {}
            },
            {
                "species": [
                    {
                        "element": "O",
                        "occu": 1
                    }
                ],
                "abc": [
                    0.0,
                    0.38113644,
                    0.61467718
                ],
                "xyz": [
                    -2.160138289979975,
                    3.7414691641709483,
                    2.842724575554833
                ],
                "label": "O",
                "properties": {}
            },
            {
                "species": [
                    {
                        "element": "O",
                        "occu": 1
                    }
                ],
                "abc": [
                    0.38113644,
                    0.0,
                    0.61467718
                ],
                "xyz": [
                    4.32027657995995,
                    0.0,
                    2.842724575554833
                ],
                "label": "O",
                "properties": {}
            },
            {
                "species": [
                    {
                        "element": "O",
                        "occu": 1
                    }
                ],
                "abc": [
                    0.14201374,
                    0.14201374,
                    0.60727711
                ],
                "xyz": [
                    0.8048805763029658,
                    1.3940940128910013,
                    2.8085011465187555
                ],
                "label": "O",
                "properties": {}
            },
            {
                "species": [
                    {
                        "element": "O",
                        "occu": 1
                    }
                ],
                "abc": [
                    0.0,
                    0.85798626,
                    0.60727711
                ],
                "xyz": [
                    -4.862744093697034,
                    8.422519597108998,
                    2.8085011465187555
                ],
                "label": "O",
                "properties": {}
            },
            {
                "species": [
                    {
                        "element": "O",
                        "occu": 1
                    }
                ],
                "abc": [
                    0.85798626,
                    0.0,
                    0.60727711
                ],
                "xyz": [
                    9.725488187394069,
                    0.0,
                    2.8085011465187555
                ],
                "label": "O",
                "properties": {}
            },
            {
                "species": [
                    {
                        "element": "O",
                        "occu": 1
                    }
                ],
                "abc": [
                    0.29083524,
                    0.43746253,
                    0.60663393
                ],
                "xyz": [
                    0.8173165350301264,
                    4.294400625863033,
                    2.8055266036985627
                ],
                "label": "O",
                "properties": {}
            },
            {
                "species": [
                    {
                        "element": "O",
                        "occu": 1
                    }
                ],
                "abc": [
                    0.56253747,
                    0.85337271,
                    0.60663393
                ],
                "xyz": [
                    1.539906261642014,
                    8.377230159388583,
                    2.8055266036985627
                ],
                "label": "O",
                "properties": {}
            },
            {
                "species": [
                    {
                        "element": "O",
                        "occu": 1
                    }
                ],
                "abc": [
                    0.14662729,
                    0.70916476,
                    0.60663393
                ],
                "xyz": [
                    -2.3572227966721404,
                    6.961596434748382,
                    2.8055266036985627
                ],
                "label": "O",
                "properties": {}
            },
            {
                "species": [
                    {
                        "element": "O",
                        "occu": 1
                    }
                ],
                "abc": [
                    0.22822728,
                    0.0,
                    0.09278161
                ],
                "xyz": [
                    2.5870131249899955,
                    0.0,
                    0.4290911904465756
                ],
                "label": "O",
                "properties": {}
            },
            {
                "species": [
                    {
                        "element": "O",
                        "occu": 1
                    }
                ],
                "abc": [
                    0.0,
                    0.22822728,
                    0.09278161
                ],
                "xyz": [
                    -1.2935065624949977,
                    2.2404190230212806,
                    0.4290911904465756
                ],
                "label": "O",
                "properties": {}
            },
            {
                "species": [
                    {
                        "element": "O",
                        "occu": 1
                    }
                ],
                "abc": [
                    0.77177272,
                    0.77177272,
                    0.09278161
                ],
                "xyz": [
                    4.374118107505002,
                    7.576194586978718,
                    0.4290911904465756
                ],
                "label": "O",
                "properties": {}
            },
            {
                "species": [
                    {
                        "element": "O",
                        "occu": 1
                    }
                ],
                "abc": [
                    0.52322419,
                    0.14929151,
                    0.10331321
                ],
                "xyz": [
                    5.084748409271984,
                    1.4655370689234508,
                    0.4777971439357116
                ],
                "label": "O",
                "properties": {}
            },
            {
                "species": [
                    {
                        "element": "O",
                        "occu": 1
                    }
                ],
                "abc": [
                    0.85070849,
                    0.37393268,
                    0.10331321
                ],
                "xyz": [
                    7.523682767717682,
                    3.6707526357117746,
                    0.4777971439357116
                ],
                "label": "O",
                "properties": {}
            },
            {
                "species": [
                    {
                        "element": "O",
                        "occu": 1
                    }
                ],
                "abc": [
                    0.62606732,
                    0.47677581,
                    0.10331321
                ],
                "xyz": [
                    4.394442833010336,
                    4.680323905364774,
                    0.4777971439357116
                ],
                "label": "O",
                "properties": {}
            },
            {
                "species": [
                    {
                        "element": "O",
                        "occu": 1
                    }
                ],
                "abc": [
                    0.14929151,
                    0.52322419,
                    0.10331321
                ],
                "xyz": [
                    -1.2731818369896641,
                    5.136289704635225,
                    0.4777971439357116
                ],
                "label": "O",
                "properties": {}
            },
            {
                "species": [
                    {
                        "element": "O",
                        "occu": 1
                    }
                ],
                "abc": [
                    0.37393268,
                    0.85070849,
                    0.10331321
                ],
                "xyz": [
                    -0.5828762607280176,
                    8.351076541076548,
                    0.4777971439357116
                ],
                "label": "O",
                "properties": {}
            },
            {
                "species": [
                    {
                        "element": "O",
                        "occu": 1
                    }
                ],
                "abc": [
                    0.47677581,
                    0.62606732,
                    0.10331321
                ],
                "xyz": [
                    1.856058097717681,
                    6.145860974288224,
                    0.4777971439357116
                ],
                "label": "O",
                "properties": {}
            },
            {
                "species": [
                    {
                        "element": "O",
                        "occu": 1
                    }
                ],
                "abc": [
                    0.71206782,
                    0.0,
                    0.11826077
                ],
                "xyz": [
                    8.071466286690239,
                    0.0,
                    0.5469257817624492
                ],
                "label": "O",
                "properties": {}
            },
            {
                "species": [
                    {
                        "element": "O",
                        "occu": 1
                    }
                ],
                "abc": [
                    0.0,
                    0.71206782,
                    0.11826077
                ],
                "xyz": [
                    -4.035733143345119,
                    6.99009465305503,
                    0.5469257817624492
                ],
                "label": "O",
                "properties": {}
            },
            {
                "species": [
                    {
                        "element": "O",
                        "occu": 1
                    }
                ],
                "abc": [
                    0.28793218,
                    0.28793218,
                    0.11826077
                ],
                "xyz": [
                    1.6318915266548806,
                    2.8265189569449696,
                    0.5469257817624492
                ],
                "label": "O",
                "properties": {}
            },
            {
                "species": [
                    {
                        "element": "O",
                        "occu": 1
                    }
                ],
                "abc": [
                    0.70916476,
                    0.14662729,
                    0.60663393
                ],
                "xyz": [
                    7.2075309316420135,
                    1.4393834506114167,
                    2.8055266036985627
                ],
                "label": "O",
                "properties": {}
            },
            {
                "species": [
                    {
                        "element": "O",
                        "occu": 1
                    }
                ],
                "abc": [
                    0.85337271,
                    0.56253747,
                    0.60663393
                ],
                "xyz": [
                    6.484941205030127,
                    5.522212984136966,
                    2.8055266036985627
                ],
                "label": "O",
                "properties": {}
            },
            {
                "species": [
                    {
                        "element": "O",
                        "occu": 1
                    }
                ],
                "abc": [
                    0.43746253,
                    0.29083524,
                    0.60663393
                ],
                "xyz": [
                    3.31040187332786,
                    2.855017175251616,
                    2.8055266036985627
                ],
                "label": "O",
                "properties": {}
            }
        ]
    },
    "spacegroup": {
        "source": "spglib",
        "symbol": "P31m",
        "number": 157,
        "point_group": "3m",
        "crystal_system": "trigonal",
        "hall": "P 3 -2"
    },
    "dielectric": {
        "epsilon_ionic": [
            [
                11.62020006,
                -0.00025558,
                2.041e-05
            ],
            [
                -0.00025558,
                11.53539365,
                -0.00024023
            ],
            [
                2.041e-05,
                -0.00024023,
                3.43304927
            ]
        ],
        "epsilon_ionic_avg": 8.86288099333333,
        "epsilon_ionic_eig": [
            11.620200830285755,
            11.535392886887765,
            3.4330492628264713
        ],
        "epsilon_electronic": [
            [
                4.11776517,
                -2.1e-07,
                0.0
            ],
            [
                -2.1e-07,
                4.11776551,
                -0.0
            ],
            [
                -0.0,
                -0.0,
                3.65668839
            ]
        ],
        "epsilon_electronic_avg": 3.964073023333333,
        "epsilon_electronic_eig": [
            4.117765069814879,
            4.117765610185121,
            3.65668839
        ]
    },
    "phonon": {
        "lowest_freq": -0.25312504505657946,
        "frequency": [
            -0.25312504505657946,
            -0.20330642530571746,
            -0.20330641208232067,
            0.1658901174003255,
            0.7854623107533129,
            0.7854623123090853,
            1.1946682228890042,
            1.1946682310720336,
            1.2261607763049984,
            1.3242852417148556,
            1.4699723589721156,
            1.4699723755982872,
            1.7258207629268056,
            1.7258208195723468,
            1.7445224117130345,
            1.8067521154730422,
            1.9780987895201134,
            1.9780988451189836,
            1.9886266333923632,
            2.302707057559296,
            2.3440125253982895,
            2.3440125983842854,
            2.4258696642283213,
            2.4258697397888915,
            2.651874290287488,
            2.65187430411168,
            2.6986731138055537,
            3.2168756790070185,
            3.2712444462000216,
            3.2712444574067723,
            3.5719010045011075,
            3.571901028449153,
            3.6867058261902836,
            3.9319289547323275,
            4.119106558128738,
            4.119106611528696,
            4.59919785102197,
            4.901310388807518,
            4.9013105084817,
            5.1729576292862935,
            5.17295770015488,
            5.457827947203362,
            5.457828036762847,
            5.5924427412692586,
            5.832627991600329,
            8.307472578365509,
            8.521466902221055,
            8.521467074304194,
            8.530664543327642,
            8.896997696317763,
            8.896997751257675,
            9.21155854967926,
            9.255039268611496,
            9.25503933462962,
            9.314872469219313,
            9.400034669322658,
            9.40003476032237,
            9.448600517722884,
            9.44860059532172,
            9.528628572348772,
            9.733458832224224,
            9.73345886988814,
            9.740315857568946,
            9.844554520048192,
            9.876741265677564,
            9.876741352285125,
            9.936589803186354,
            9.936589999954167,
            9.971173728754978,
            9.996476782101855,
            9.996476965466554,
            10.102725977034794,
            10.10272615847107,
            10.22605094655738,
            10.236661271896155,
            25.590203903256196,
            25.59020438078293,
            25.59863009885821,
            26.064171208910285,
            26.064171490216133,
            26.07987651833808,
            26.19815628086885,
            26.198156560736024,
            26.58556650938635,
            26.585567198858573,
            27.46491945510476,
            27.550175172393576,
            27.550175216749036,
            27.830342835779458,
            27.830342879688388,
            27.942850728787235,
            28.740011152279504,
            28.93850471620141,
            28.99669891023098,
            28.996698952373727,
            29.02071808442969,
            29.158186504936207,
            29.158186504936207,
            29.243625971822627
        ]
    },
    "born_effective_charge": {
        "avg_abs_trace": 2.0873686868686874,
        "tensors": [
            [
                [
                    3.57058,
                    0.0,
                    -0.10295
                ],
                [
                    -0.00103,
                    3.61679,
                    0.00093
                ],
                [
                    0.1074,
                    0.0,
                    3.87505
                ]
            ],
            [
                [
                    3.59917,
                    0.01842,
                    0.05113
                ],
                [
                    0.02065,
                    3.58034,
                    -0.09043
                ],
                [
                    -0.0537,
                    0.09301,
                    3.87505
                ]
            ],
            [
                [
                    3.59917,
                    -0.01842,
                    0.05113
                ],
                [
                    -0.01948,
                    3.57357,
                    0.08729
                ],
                [
                    -0.0537,
                    -0.09301,
                    3.87505
                ]
            ],
            [
                [
                    3.58476,
                    0.05363,
                    0.17516
                ],
                [
                    0.05176,
                    3.65307,
                    0.30656
                ],
                [
                    0.00313,
                    0.00542,
                    3.71934
                ]
            ],
            [
                [
                    3.58476,
                    -0.05363,
                    0.17516
                ],
                [
                    -0.05766,
                    3.64569,
                    -0.30306
                ],
                [
                    0.00313,
                    -0.00542,
                    3.71934
                ]
            ],
            [
                [
                    3.67898,
                    0.0,
                    -0.34915
                ],
                [
                    0.00359,
                    3.5521,
                    0.00152
                ],
                [
                    -0.00626,
                    0.0,
                    3.71934
                ]
            ],
            [
                [
                    4.52769,
                    0.0,
                    -0.00053
                ],
                [
                    -0.00044,
                    4.51089,
                    -0.00122
                ],
                [
                    0.0,
                    0.0,
                    3.42096
                ]
            ],
            [
                [
                    4.89741,
                    -0.32451,
                    0.00031
                ],
                [
                    0.322,
                    4.873,
                    0.00066
                ],
                [
                    0.0,
                    0.0,
                    2.64774
                ]
            ],
            [
                [
                    4.89741,
                    0.32451,
                    0.00031
                ],
                [
                    -0.32046,
                    4.87977,
                    0.00059
                ],
                [
                    0.0,
                    0.0,
                    2.64774
                ]
            ],
            [
                [
                    -0.40904,
                    0.01149,
                    -0.04652
                ],
                [
                    0.01065,
                    -0.3949,
                    -0.07918
                ],
                [
                    -0.0424,
                    -0.07343,
                    -2.51486
                ]
            ],
            [
                [
                    -0.40904,
                    -0.01149,
                    -0.04652
                ],
                [
                    -0.01102,
                    -0.3957,
                    0.08137
                ],
                [
                    -0.0424,
                    0.07343,
                    -2.51486
                ]
            ],
            [
                [
                    -0.38926,
                    0.0,
                    0.09367
                ],
                [
                    0.00033,
                    -0.41345,
                    -0.0015
                ],
                [
                    0.08479,
                    0.0,
                    -2.51486
                ]
            ],
            [
                [
                    -1.21109,
                    -1.12946,
                    0.63273
                ],
                [
                    -1.13009,
                    -2.51723,
                    1.09439
                ],
                [
                    0.42966,
                    0.7442,
                    -1.32234
                ]
            ],
            [
                [
                    -1.21109,
                    1.12946,
                    0.63273
                ],
                [
                    1.12883,
                    -2.51532,
                    -1.09325
                ],
                [
                    0.42966,
                    -0.7442,
                    -1.32234
                ]
            ],
            [
                [
                    -3.16783,
                    0.0,
                    -1.26543
                ],
                [
                    -0.00278,
                    -0.5595,
                    -0.00082
                ],
                [
                    -0.85932,
                    0.0,
                    -1.32234
                ]
            ],
            [
                [
                    -1.01926,
                    1.2016,
                    0.19189
                ],
                [
                    1.22446,
                    -2.81808,
                    -0.28806
                ],
                [
                    0.11597,
                    -0.12389,
                    -0.70569
                ]
            ],
            [
                [
                    -1.32075,
                    -1.40084,
                    0.15158
                ],
                [
                    -1.37179,
                    -2.51492,
                    0.30896
                ],
                [
                    0.04931,
                    0.16238,
                    -0.70569
                ]
            ],
            [
                [
                    -3.42256,
                    0.16152,
                    -0.34334
                ],
                [
                    0.19014,
                    -0.41781,
                    -0.02147
                ],
                [
                    -0.16528,
                    -0.03849,
                    -0.70569
                ]
            ],
            [
                [
                    -3.19361,
                    0.0,
                    0.4884
                ],
                [
                    0.00293,
                    -0.39025,
                    0.00025
                ],
                [
                    0.20146,
                    0.0,
                    -0.64856
                ]
            ],
            [
                [
                    -1.09189,
                    1.21388,
                    -0.24407
                ],
                [
                    1.20974,
                    -2.4871,
                    0.42277
                ],
                [
                    -0.10073,
                    0.17447,
                    -0.64856
                ]
            ],
            [
                [
                    -1.09189,
                    -1.21388,
                    -0.24407
                ],
                [
                    -1.21035,
                    -2.48543,
                    -0.42197
                ],
                [
                    -0.10073,
                    -0.17447,
                    -0.64856
                ]
            ],
            [
                [
                    -1.0489,
                    -1.11056,
                    -0.56256
                ],
                [
                    -1.05258,
                    -2.66859,
                    -1.11912
                ],
                [
                    -0.381,
                    -0.76583,
                    -1.11566
                ]
            ],
            [
                [
                    -3.19979,
                    -0.1899,
                    1.2528
                ],
                [
                    -0.13024,
                    -0.51783,
                    0.07342
                ],
                [
                    0.85373,
                    0.05296,
                    -1.11566
                ]
            ],
            [
                [
                    -1.32756,
                    1.21351,
                    -0.69041
                ],
                [
                    1.26752,
                    -2.38586,
                    1.0439
                ],
                [
                    -0.47273,
                    0.71287,
                    -1.11566
                ]
            ],
            [
                [
                    -1.32756,
                    -1.21351,
                    -0.69041
                ],
                [
                    -1.26951,
                    -2.38709,
                    -1.04383
                ],
                [
                    -0.47273,
                    -0.71287,
                    -1.11566
                ]
            ],
            [
                [
                    -1.0489,
                    1.11056,
                    -0.56256
                ],
                [
                    1.04972,
                    -2.66573,
                    1.11782
                ],
                [
                    -0.381,
                    0.76583,
                    -1.11566
                ]
            ],
            [
                [
                    -3.19979,
                    0.1899,
                    1.2528
                ],
                [
                    0.13216,
                    -0.51781,
                    -0.07457
                ],
                [
                    0.85373,
                    -0.05296,
                    -1.11566
                ]
            ],
            [
                [
                    -0.4127,
                    0.0,
                    0.1986
                ],
                [
                    -0.00016,
                    -0.31176,
                    -0.00114
                ],
                [
                    0.10282,
                    0.0,
                    -2.3714
                ]
            ],
            [
                [
                    -0.33743,
                    0.04339,
                    -0.09999
                ],
                [
                    0.04338,
                    -0.38575,
                    0.1704
                ],
                [
                    -0.05141,
                    0.08904,
                    -2.3714
                ]
            ],
            [
                [
                    -0.33743,
                    -0.04339,
                    -0.09999
                ],
                [
                    -0.04325,
                    -0.3865,
                    -0.17275
                ],
                [
                    -0.05141,
                    -0.08904,
                    -2.3714
                ]
            ],
            [
                [
                    -1.32075,
                    1.40084,
                    0.15158
                ],
                [
                    1.37091,
                    -2.51381,
                    -0.30892
                ],
                [
                    0.04931,
                    -0.16238,
                    -0.70569
                ]
            ],
            [
                [
                    -1.01926,
                    -1.2016,
                    0.19189
                ],
                [
                    -1.22372,
                    -2.81635,
                    0.28704
                ],
                [
                    0.11597,
                    0.12389,
                    -0.70569
                ]
            ],
            [
                [
                    -3.42256,
                    -0.16152,
                    -0.34334
                ],
                [
                    -0.18422,
                    -0.41845,
                    0.02342
                ],
                [
                    -0.16528,
                    0.03849,
                    -0.70569
                ]
            ]
        ]
    },
    "band_gap": 3.6363,
    "is_direct": false,
    "formula": "Re2PbO8"
}