{
    "mp_id": "mp-2970",
    "nelements": 3,
    "nsites": 18,
    "elements": [
        "Ge",
        "Na",
        "O"
    ],
    "structure": {
        "@module": "pymatgen.core.structure",
        "@class": "Structure",
        "charge": null,
        "lattice": {
            "matrix": [
                [
                    5.64943692,
                    -5.23e-05,
                    0.00168429
                ],
                [
                    2.09004353,
                    5.2623088,
                    -0.00109682
                ],
                [
                    2.74471815,
                    0.26372738,
                    8.09542299
                ]
            ],
            "a": 5.649437171314252,
            "b": 5.662170702731101,
            "c": 8.552128579536303,
            "alpha": 81.55018340935266,
            "beta": 71.26317700458743,
            "gamma": 68.3389280515631,
            "volume": 240.64861128717214
        },
        "sites": [
            {
                "species": [
                    {
                        "element": "Na",
                        "occu": 1
                    }
                ],
                "abc": [
                    0.97942696,
                    0.23475954,
                    0.06609812
                ],
                "xyz": [
                    6.205289195595018,
                    1.2527578532064696,
                    0.5364843903195744
                ],
                "label": "Na",
                "properties": {}
            },
            {
                "species": [
                    {
                        "element": "Na",
                        "occu": 1
                    }
                ],
                "abc": [
                    0.44554063,
                    0.74322135,
                    0.10128642
                ],
                "xyz": [
                    4.348421333729948,
                    3.93774895085411,
                    0.8198916526293915
                ],
                "label": "Na",
                "properties": {}
            },
            {
                "species": [
                    {
                        "element": "Na",
                        "occu": 1
                    }
                ],
                "abc": [
                    0.8899597,
                    0.7725201,
                    0.31766153
                ],
                "xyz": [
                    7.514263190239847,
                    4.148968818548261,
                    2.5722560877276055
                ],
                "label": "Na",
                "properties": {}
            },
            {
                "species": [
                    {
                        "element": "Na",
                        "occu": 1
                    }
                ],
                "abc": [
                    0.25808459,
                    0.7440995,
                    0.51104984
                ],
                "xyz": [
                    4.415920728282894,
                    4.050445684454162,
                    4.136783169852322
                ],
                "label": "Na",
                "properties": {}
            },
            {
                "species": [
                    {
                        "element": "Na",
                        "occu": 1
                    }
                ],
                "abc": [
                    0.74191541,
                    0.2559005,
                    0.48895016
                ],
                "xyz": [
                    6.0682778717171075,
                    1.4755381955458375,
                    3.9592272901476773
                ],
                "label": "Na",
                "properties": {}
            },
            {
                "species": [
                    {
                        "element": "Na",
                        "occu": 1
                    }
                ],
                "abc": [
                    0.55445937,
                    0.25677865,
                    0.89871358
                ],
                "xyz": [
                    6.135777266270052,
                    1.5882349291458893,
                    7.276118807370608
                ],
                "label": "Na",
                "properties": {}
            },
            {
                "species": [
                    {
                        "element": "Na",
                        "occu": 1
                    }
                ],
                "abc": [
                    0.02057304,
                    0.76524046,
                    0.93390188
                ],
                "xyz": [
                    4.278909404404983,
                    4.27322602679353,
                    7.559526069680425
                ],
                "label": "Na",
                "properties": {}
            },
            {
                "species": [
                    {
                        "element": "Na",
                        "occu": 1
                    }
                ],
                "abc": [
                    0.1100403,
                    0.2274799,
                    0.68233847
                ],
                "xyz": [
                    2.969935409760154,
                    1.3770150614517387,
                    5.523754372272394
                ],
                "label": "Na",
                "properties": {}
            },
            {
                "species": [
                    {
                        "element": "Ge",
                        "occu": 1
                    }
                ],
                "abc": [
                    0.34255246,
                    0.22079239,
                    0.25622403
                ],
                "xyz": [
                    3.0999569663607045,
                    1.2294331135013155,
                    2.074576691226103
                ],
                "label": "Ge",
                "properties": {}
            },
            {
                "species": [
                    {
                        "element": "Ge",
                        "occu": 1
                    }
                ],
                "abc": [
                    0.65744754,
                    0.77920761,
                    0.74377597
                ],
                "xyz": [
                    7.384241633639297,
                    4.296550766498685,
                    6.021433768773895
                ],
                "label": "Ge",
                "properties": {}
            },
            {
                "species": [
                    {
                        "element": "O",
                        "occu": 1
                    }
                ],
                "abc": [
                    0.33273096,
                    0.97382582,
                    0.8640765
                ],
                "xyz": [
                    6.286727376827463,
                    5.352435411888578,
                    6.994557067011461
                ],
                "label": "O",
                "properties": {}
            },
            {
                "species": [
                    {
                        "element": "O",
                        "occu": 1
                    }
                ],
                "abc": [
                    0.79739678,
                    0.52235702,
                    0.87709934
                ],
                "xyz": [
                    8.00398219667322,
                    2.9800773501741107,
                    7.101260277345736
                ],
                "label": "O",
                "properties": {}
            },
            {
                "species": [
                    {
                        "element": "O",
                        "occu": 1
                    }
                ],
                "abc": [
                    0.20260322,
                    0.47764298,
                    0.12290066
                ],
                "xyz": [
                    2.480216403326781,
                    2.5459065298258885,
                    0.9947501826542635
                ],
                "label": "O",
                "properties": {}
            },
            {
                "species": [
                    {
                        "element": "O",
                        "occu": 1
                    }
                ],
                "abc": [
                    0.86490062,
                    0.97291639,
                    0.69530142
                ],
                "xyz": [
                    8.82804552810412,
                    5.303111268265685,
                    5.629148729758025
                ],
                "label": "O",
                "properties": {}
            },
            {
                "species": [
                    {
                        "element": "O",
                        "occu": 1
                    }
                ],
                "abc": [
                    0.13509938,
                    0.02708361,
                    0.30469858
                ],
                "xyz": [
                    1.65615307189588,
                    0.22287261173431439,
                    2.466861730241974
                ],
                "label": "O",
                "properties": {}
            },
            {
                "species": [
                    {
                        "element": "O",
                        "occu": 1
                    }
                ],
                "abc": [
                    0.64710698,
                    0.65504291,
                    0.56720121
                ],
                "xyz": [
                    6.581665715708535,
                    3.5965907150216836,
                    4.592105167040615
                ],
                "label": "O",
                "properties": {}
            },
            {
                "species": [
                    {
                        "element": "O",
                        "occu": 1
                    }
                ],
                "abc": [
                    0.66726904,
                    0.02617418,
                    0.1359235
                ],
                "xyz": [
                    4.1974712231725375,
                    0.173548468111422,
                    1.101453392988539
                ],
                "label": "O",
                "properties": {}
            },
            {
                "species": [
                    {
                        "element": "O",
                        "occu": 1
                    }
                ],
                "abc": [
                    0.35289302,
                    0.34495709,
                    0.43279879
                ],
                "xyz": [
                    3.902532884291465,
                    1.9293931649783163,
                    3.503905292959384
                ],
                "label": "O",
                "properties": {}
            }
        ]
    },
    "spacegroup": {
        "source": "spglib",
        "symbol": "P-1",
        "number": 2,
        "point_group": "-1",
        "crystal_system": "triclinic",
        "hall": "-P 1"
    },
    "dielectric": {
        "epsilon_ionic": [
            [
                3.55044553,
                -0.35360115,
                0.07757416
            ],
            [
                -0.35360115,
                4.28563566,
                -0.17752385
            ],
            [
                0.07757416,
                -0.17752385,
                3.24034905
            ]
        ],
        "epsilon_ionic_avg": 3.6921434133333313,
        "epsilon_ionic_eig": [
            4.458875742449024,
            3.408135863820426,
            3.209418633730543
        ],
        "epsilon_electronic": [
            [
                2.66015853,
                -0.00119699,
                0.00399416
            ],
            [
                -0.00119511,
                2.68553217,
                0.00560564
            ],
            [
                0.00399443,
                0.0056056,
                2.6884003
            ]
        ],
        "epsilon_electronic_avg": 2.6780303333333326,
        "epsilon_electronic_eig": [
            2.6594521975710474,
            2.6817020072685698,
            2.692936795160382
        ]
    },
    "phonon": {
        "lowest_freq": -0.2341800396842156,
        "frequency": [
            -0.2341800396842156,
            -0.10198510187311934,
            -0.07579874597027274,
            2.910043539302161,
            3.4676459610441426,
            3.5952535795793357,
            3.9892156974015953,
            4.118273912256315,
            4.353032249792719,
            4.388875353280005,
            4.628685750349601,
            5.021793062730829,
            5.080873200371115,
            5.242019415566267,
            5.357105844456937,
            5.539329082338236,
            5.680479428713988,
            5.9600742209627695,
            6.009579217351715,
            6.014247014299136,
            6.132685700362579,
            6.592982521566145,
            6.62804928085044,
            6.838098006697395,
            7.142449938646902,
            7.230359432580953,
            7.255350495998151,
            7.573007098101855,
            7.729495473755222,
            7.840794788405195,
            7.852270147054279,
            8.08538523815542,
            8.085958661727629,
            8.221700994923493,
            8.312015634375085,
            8.595776919467035,
            9.879032388522555,
            10.301476423356306,
            10.353590420651022,
            10.384308171907612,
            10.732988752617512,
            11.07877612124905,
            11.173272973157225,
            11.226044246978256,
            11.384554161299786,
            12.446967121580606,
            19.81898017313496,
            19.941280736953075,
            20.082639541164735,
            20.712423055933016,
            21.166895587183074,
            21.41062726514756,
            21.899246456686765,
            22.35246272586894
        ]
    },
    "born_effective_charge": {
        "avg_abs_trace": 1.4558855555555554,
        "tensors": [
            [
                [
                    1.1274,
                    -0.07306,
                    0.0623
                ],
                [
                    -0.10596,
                    0.94363,
                    0.00648
                ],
                [
                    0.04541,
                    -0.02415,
                    1.01274
                ]
            ],
            [
                [
                    0.81736,
                    0.11029,
                    -0.01579
                ],
                [
                    0.13371,
                    1.01957,
                    0.02796
                ],
                [
                    -0.02989,
                    0.00855,
                    1.0091
                ]
            ],
            [
                [
                    1.01977,
                    -0.06337,
                    0.0096
                ],
                [
                    -0.07766,
                    1.07263,
                    0.00397
                ],
                [
                    -0.05449,
                    -0.0248,
                    0.96058
                ]
            ],
            [
                [
                    1.01522,
                    0.04361,
                    -0.06148
                ],
                [
                    0.05019,
                    0.97626,
                    -0.04394
                ],
                [
                    0.04055,
                    0.03167,
                    0.96162
                ]
            ],
            [
                [
                    1.01524,
                    0.04361,
                    -0.06148
                ],
                [
                    0.05015,
                    0.97629,
                    -0.04392
                ],
                [
                    0.04054,
                    0.0317,
                    0.9616
                ]
            ],
            [
                [
                    0.81736,
                    0.11028,
                    -0.01581
                ],
                [
                    0.13369,
                    1.01957,
                    0.02798
                ],
                [
                    -0.02989,
                    0.00856,
                    1.00908
                ]
            ],
            [
                [
                    1.12739,
                    -0.07308,
                    0.06231
                ],
                [
                    -0.10597,
                    0.94363,
                    0.00649
                ],
                [
                    0.04541,
                    -0.02416,
                    1.01275
                ]
            ],
            [
                [
                    1.01977,
                    -0.06334,
                    0.00959
                ],
                [
                    -0.07766,
                    1.07264,
                    0.00397
                ],
                [
                    -0.0545,
                    -0.02477,
                    0.96058
                ]
            ],
            [
                [
                    2.47703,
                    0.01732,
                    0.05076
                ],
                [
                    0.03566,
                    2.57092,
                    0.06908
                ],
                [
                    0.03038,
                    0.05547,
                    2.67066
                ]
            ],
            [
                [
                    2.47707,
                    0.01738,
                    0.05077
                ],
                [
                    0.0358,
                    2.57094,
                    0.06906
                ],
                [
                    0.03027,
                    0.0555,
                    2.67051
                ]
            ],
            [
                [
                    -1.69066,
                    0.3664,
                    0.27522
                ],
                [
                    0.29066,
                    -1.61883,
                    -0.34949
                ],
                [
                    0.26083,
                    -0.2804,
                    -1.63814
                ]
            ],
            [
                [
                    -1.39068,
                    0.1926,
                    -0.19328
                ],
                [
                    0.25504,
                    -1.85747,
                    0.42442
                ],
                [
                    -0.17267,
                    0.37951,
                    -1.66713
                ]
            ],
            [
                [
                    -1.39076,
                    0.19265,
                    -0.19339
                ],
                [
                    0.2553,
                    -1.85769,
                    0.42446
                ],
                [
                    -0.17299,
                    0.38011,
                    -1.66756
                ]
            ],
            [
                [
                    -1.87923,
                    -0.44277,
                    0.17994
                ],
                [
                    -0.45518,
                    -1.58762,
                    0.09868
                ],
                [
                    0.2191,
                    0.15221,
                    -1.39154
                ]
            ],
            [
                [
                    -1.879,
                    -0.44252,
                    0.17989
                ],
                [
                    -0.45434,
                    -1.58714,
                    0.09851
                ],
                [
                    0.21914,
                    0.15241,
                    -1.39154
                ]
            ],
            [
                [
                    -1.4964,
                    -0.15129,
                    -0.30733
                ],
                [
                    -0.12746,
                    -1.51914,
                    -0.23703
                ],
                [
                    -0.33891,
                    -0.29855,
                    -1.91761
                ]
            ],
            [
                [
                    -1.69065,
                    0.36645,
                    0.27532
                ],
                [
                    0.2912,
                    -1.61926,
                    -0.34998
                ],
                [
                    0.26068,
                    -0.28018,
                    -1.63783
                ]
            ],
            [
                [
                    -1.49623,
                    -0.15114,
                    -0.30712
                ],
                [
                    -0.12716,
                    -1.51892,
                    -0.23667
                ],
                [
                    -0.33898,
                    -0.29866,
                    -1.91788
                ]
            ]
        ]
    },
    "band_gap": 2.8889,
    "is_direct": false,
    "formula": "Na4GeO4"
}