{
    "mp_id": "mp-2920",
    "nelements": 3,
    "nsites": 10,
    "elements": [
        "Al",
        "La",
        "O"
    ],
    "structure": {
        "@module": "pymatgen.core.structure",
        "@class": "Structure",
        "charge": null,
        "lattice": {
            "matrix": [
                [
                    2.67649181,
                    1.54527341,
                    4.34846429
                ],
                [
                    -2.67649181,
                    1.54527341,
                    4.34846429
                ],
                [
                    0.0,
                    -3.09054682,
                    4.34846429
                ]
            ],
            "a": 5.334849576328775,
            "b": 5.334849576328775,
            "c": 5.334849700602382,
            "alpha": 60.22501859965719,
            "beta": 60.22501859965719,
            "gamma": 60.225014760670945,
            "volume": 107.90918407551797
        },
        "sites": [
            {
                "species": [
                    {
                        "element": "La",
                        "occu": 1
                    }
                ],
                "abc": [
                    0.25,
                    0.25,
                    0.25
                ],
                "xyz": [
                    0.0,
                    0.0,
                    3.2613482175
                ],
                "label": "La",
                "properties": {}
            },
            {
                "species": [
                    {
                        "element": "La",
                        "occu": 1
                    }
                ],
                "abc": [
                    0.75,
                    0.75,
                    0.75
                ],
                "xyz": [
                    0.0,
                    0.0,
                    9.7840446525
                ],
                "label": "La",
                "properties": {}
            },
            {
                "species": [
                    {
                        "element": "Al",
                        "occu": 1
                    }
                ],
                "abc": [
                    0.0,
                    0.0,
                    0.0
                ],
                "xyz": [
                    0.0,
                    0.0,
                    0.0
                ],
                "label": "Al",
                "properties": {}
            },
            {
                "species": [
                    {
                        "element": "Al",
                        "occu": 1
                    }
                ],
                "abc": [
                    0.5,
                    0.5,
                    0.5
                ],
                "xyz": [
                    0.0,
                    0.0,
                    6.522696435
                ],
                "label": "Al",
                "properties": {}
            },
            {
                "species": [
                    {
                        "element": "O",
                        "occu": 1
                    }
                ],
                "abc": [
                    0.78645523,
                    0.25,
                    0.71354477
                ],
                "xyz": [
                    1.4358180295266663,
                    -0.6036368122766975,
                    7.6098125075
                ],
                "label": "O",
                "properties": {}
            },
            {
                "species": [
                    {
                        "element": "O",
                        "occu": 1
                    }
                ],
                "abc": [
                    0.25,
                    0.71354477,
                    0.78645523
                ],
                "xyz": [
                    -1.2406737804733339,
                    -0.9416365977233025,
                    7.609812507499999
                ],
                "label": "O",
                "properties": {}
            },
            {
                "species": [
                    {
                        "element": "O",
                        "occu": 1
                    }
                ],
                "abc": [
                    0.71354477,
                    0.78645523,
                    0.25
                ],
                "xyz": [
                    -0.19514424905333239,
                    1.54527341,
                    7.6098125075
                ],
                "label": "O",
                "properties": {}
            },
            {
                "species": [
                    {
                        "element": "O",
                        "occu": 1
                    }
                ],
                "abc": [
                    0.21354477,
                    0.75,
                    0.28645523
                ],
                "xyz": [
                    -1.4358180295266663,
                    0.603636812276697,
                    5.4355803625
                ],
                "label": "O",
                "properties": {}
            },
            {
                "species": [
                    {
                        "element": "O",
                        "occu": 1
                    }
                ],
                "abc": [
                    0.28645523,
                    0.21354477,
                    0.75
                ],
                "xyz": [
                    0.1951442490533326,
                    -1.54527341,
                    5.4355803625
                ],
                "label": "O",
                "properties": {}
            },
            {
                "species": [
                    {
                        "element": "O",
                        "occu": 1
                    }
                ],
                "abc": [
                    0.75,
                    0.28645523,
                    0.21354477
                ],
                "xyz": [
                    1.2406737804733337,
                    0.9416365977233031,
                    5.4355803625
                ],
                "label": "O",
                "properties": {}
            }
        ]
    },
    "spacegroup": {
        "source": "spglib",
        "symbol": "R-3c",
        "number": 167,
        "point_group": "-3m",
        "crystal_system": "trigonal",
        "hall": "-R 3 2\"c"
    },
    "dielectric": {
        "epsilon_ionic": [
            [
                19.75091383,
                1e-08,
                1.4e-07
            ],
            [
                1e-08,
                19.77466734,
                0.02464531
            ],
            [
                1.4e-07,
                0.02464531,
                24.28931566
            ]
        ],
        "epsilon_ionic_avg": 21.27163227666666,
        "epsilon_ionic_eig": [
            19.750913829999995,
            24.28945019389113,
            19.77453280610885
        ],
        "epsilon_electronic": [
            [
                4.73336898,
                0.0,
                0.0
            ],
            [
                -0.0,
                4.73336872,
                -3.6e-07
            ],
            [
                0.0,
                -3.6e-07,
                4.64858495
            ]
        ],
        "epsilon_electronic_avg": 4.70510755,
        "epsilon_electronic_eig": [
            4.6485849499984715,
            4.733368720001528,
            4.73336898
        ]
    },
    "phonon": {
        "lowest_freq": -0.044917736775816786,
        "frequency": [
            -0.044917736775816786,
            -0.04491773549716751,
            -0.032620463911661186,
            1.641762841670711,
            1.6417628565571567,
            4.122549867176795,
            4.567441193218436,
            4.5674413216405165,
            4.812343998141184,
            5.491910482441885,
            5.4919106159474085,
            5.787537714766828,
            8.910073798857914,
            8.91007427887663,
            10.690539082589968,
            12.363321959124187,
            12.568794216889588,
            12.568794615511964,
            13.432651767590066,
            14.085973555543475,
            14.08597385917902,
            14.440981705344814,
            14.440982255376959,
            14.617146833578682,
            14.617147234861035,
            14.712013232164223,
            19.27529472971827,
            19.755153565914235,
            19.75515455563117,
            22.767890459918576
        ]
    },
    "born_effective_charge": {
        "avg_abs_trace": 2.897719,
        "tensors": [
            [
                [
                    4.41714,
                    -0.0,
                    0.0
                ],
                [
                    -0.00011,
                    4.41937,
                    0.00454
                ],
                [
                    -0.0,
                    0.0,
                    4.23723
                ]
            ],
            [
                [
                    4.41731,
                    -0.0,
                    0.0
                ],
                [
                    0.00011,
                    4.41937,
                    0.00454
                ],
                [
                    -0.0,
                    0.0,
                    4.23723
                ]
            ],
            [
                [
                    2.90418,
                    0.18191,
                    -0.00047
                ],
                [
                    -0.1821,
                    2.90599,
                    0.00274
                ],
                [
                    -0.0,
                    -0.0,
                    2.8489
                ]
            ],
            [
                [
                    2.90418,
                    -0.18191,
                    0.00047
                ],
                [
                    0.1821,
                    2.90599,
                    0.00274
                ],
                [
                    -0.0,
                    -0.0,
                    2.8489
                ]
            ],
            [
                [
                    -2.42055,
                    -0.0469,
                    0.00426
                ],
                [
                    -0.04012,
                    -2.4644,
                    -0.00608
                ],
                [
                    0.01158,
                    -0.00695,
                    -2.36204
                ]
            ],
            [
                [
                    -2.42055,
                    0.0469,
                    -0.00426
                ],
                [
                    0.04035,
                    -2.46457,
                    -0.00606
                ],
                [
                    -0.01181,
                    -0.00656,
                    -2.36204
                ]
            ],
            [
                [
                    -2.48018,
                    -0.0,
                    0.0
                ],
                [
                    -0.0001,
                    -2.39639,
                    0.00485
                ],
                [
                    0.00023,
                    0.01351,
                    -2.36204
                ]
            ],
            [
                [
                    -2.42054,
                    -0.04659,
                    0.00434
                ],
                [
                    -0.04035,
                    -2.46457,
                    -0.00606
                ],
                [
                    0.01181,
                    -0.00656,
                    -2.36204
                ]
            ],
            [
                [
                    -2.48046,
                    -0.0,
                    -0.0
                ],
                [
                    0.0001,
                    -2.39639,
                    0.00485
                ],
                [
                    -0.00023,
                    0.01351,
                    -2.36204
                ]
            ],
            [
                [
                    -2.42054,
                    0.04659,
                    -0.00434
                ],
                [
                    0.04012,
                    -2.4644,
                    -0.00608
                ],
                [
                    -0.01158,
                    -0.00695,
                    -2.36204
                ]
            ]
        ]
    },
    "band_gap": 3.959200000000001,
    "is_direct": false,
    "formula": "LaAlO3"
}