{
    "mp_id": "mp-22328",
    "nelements": 3,
    "nsites": 18,
    "elements": [
        "K",
        "O",
        "Pb"
    ],
    "structure": {
        "@module": "pymatgen.core.structure",
        "@class": "Structure",
        "charge": null,
        "lattice": {
            "matrix": [
                [
                    6.61666315,
                    -0.00062088,
                    0.0046277
                ],
                [
                    2.50692658,
                    6.14245784,
                    -0.00321883
                ],
                [
                    3.19194284,
                    0.53531853,
                    9.46326921
                ]
            ],
            "a": 6.616664797438902,
            "b": 6.63434092842345,
            "c": 10.001426356441497,
            "alpha": 80.22997817208955,
            "beta": 71.34884163068588,
            "gamma": 67.80351905698988,
            "volume": 384.55323842220304
        },
        "sites": [
            {
                "species": [
                    {
                        "element": "K",
                        "occu": 1
                    }
                ],
                "abc": [
                    0.51717279,
                    0.76893088,
                    0.93512104
                ],
                "xyz": [
                    8.334464311191832,
                    5.223392030537115,
                    8.849220408190991
                ],
                "label": "K",
                "properties": {}
            },
            {
                "species": [
                    {
                        "element": "K",
                        "occu": 1
                    }
                ],
                "abc": [
                    0.04648406,
                    0.26603757,
                    0.89372094
                ],
                "xyz": [
                    3.827212177767069,
                    2.112521076388894,
                    8.456880638407277
                ],
                "label": "K",
                "properties": {}
            },
            {
                "species": [
                    {
                        "element": "K",
                        "occu": 1
                    }
                ],
                "abc": [
                    0.39998349,
                    0.76320687,
                    0.3211249
                ],
                "xyz": [
                    5.584871932633714,
                    4.859621789838486,
                    3.0382857491616395
                ],
                "label": "K",
                "properties": {}
            },
            {
                "species": [
                    {
                        "element": "K",
                        "occu": 1
                    }
                ],
                "abc": [
                    0.24243158,
                    0.25549246,
                    0.48336495
                ],
                "xyz": [
                    3.7874622320053217,
                    1.8279553575560192,
                    4.5745121623559335
                ],
                "label": "K",
                "properties": {}
            },
            {
                "species": [
                    {
                        "element": "K",
                        "occu": 1
                    }
                ],
                "abc": [
                    0.75756842,
                    0.74450754,
                    0.51663505
                ],
                "xyz": [
                    8.528070337994677,
                    4.84920013244398,
                    4.890165917644066
                ],
                "label": "K",
                "properties": {}
            },
            {
                "species": [
                    {
                        "element": "K",
                        "occu": 1
                    }
                ],
                "abc": [
                    0.95351594,
                    0.73396243,
                    0.10627906
                ],
                "xyz": [
                    8.48832039223293,
                    4.564634413611105,
                    1.0077974415927238
                ],
                "label": "K",
                "properties": {}
            },
            {
                "species": [
                    {
                        "element": "K",
                        "occu": 1
                    }
                ],
                "abc": [
                    0.48282721,
                    0.23106912,
                    0.06487896
                ],
                "xyz": [
                    3.9810682588081674,
                    1.4537634594628845,
                    0.615457671809009
                ],
                "label": "K",
                "properties": {}
            },
            {
                "species": [
                    {
                        "element": "K",
                        "occu": 1
                    }
                ],
                "abc": [
                    0.60001651,
                    0.23679313,
                    0.6788751
                ],
                "xyz": [
                    6.730660637366286,
                    1.8175337001615133,
                    6.426392330838359
                ],
                "label": "K",
                "properties": {}
            },
            {
                "species": [
                    {
                        "element": "Pb",
                        "occu": 1
                    }
                ],
                "abc": [
                    0.15515694,
                    0.7806613,
                    0.74435036
                ],
                "xyz": [
                    5.359605572365537,
                    5.193547329248855,
                    7.042193046999374
                ],
                "label": "Pb",
                "properties": {}
            },
            {
                "species": [
                    {
                        "element": "Pb",
                        "occu": 1
                    }
                ],
                "abc": [
                    0.84484306,
                    0.2193387,
                    0.25564964
                ],
                "xyz": [
                    6.955926997634462,
                    1.4836081607511442,
                    2.422485033000626
                ],
                "label": "Pb",
                "properties": {}
            },
            {
                "species": [
                    {
                        "element": "O",
                        "occu": 1
                    }
                ],
                "abc": [
                    0.63764513,
                    0.02476399,
                    0.30426645
                ],
                "xyz": [
                    5.252365655735532,
                    0.31459533215918567,
                    2.8822264472151744
                ],
                "label": "O",
                "properties": {}
            },
            {
                "species": [
                    {
                        "element": "O",
                        "occu": 1
                    }
                ],
                "abc": [
                    0.69956355,
                    0.4774188,
                    0.12034561
                ],
                "xyz": [
                    6.20976655004482,
                    2.996513741043621,
                    1.140563545955999
                ],
                "label": "O",
                "properties": {}
            },
            {
                "species": [
                    {
                        "element": "O",
                        "occu": 1
                    }
                ],
                "abc": [
                    0.36235487,
                    0.97523601,
                    0.69573355
                ],
                "xyz": [
                    7.063166914264468,
                    6.362560157840814,
                    6.582451632784826
                ],
                "label": "O",
                "properties": {}
            },
            {
                "species": [
                    {
                        "element": "O",
                        "occu": 1
                    }
                ],
                "abc": [
                    0.30043645,
                    0.5225812,
                    0.87965439
                ],
                "xyz": [
                    6.1057660199551815,
                    3.6806417489563783,
                    8.324114534044
                ],
                "label": "O",
                "properties": {}
            },
            {
                "species": [
                    {
                        "element": "O",
                        "occu": 1
                    }
                ],
                "abc": [
                    0.83201185,
                    0.97635743,
                    0.86452363
                ],
                "xyz": [
                    10.712308551895127,
                    6.459513289790186,
                    8.18192742174827
                ],
                "label": "O",
                "properties": {}
            },
            {
                "species": [
                    {
                        "element": "O",
                        "occu": 1
                    }
                ],
                "abc": [
                    0.15200536,
                    0.64312328,
                    0.57185178
                ],
                "xyz": [
                    4.443349303675522,
                    4.256386110482081,
                    5.410220673054804
                ],
                "label": "O",
                "properties": {}
            },
            {
                "species": [
                    {
                        "element": "O",
                        "occu": 1
                    }
                ],
                "abc": [
                    0.84799464,
                    0.35687672,
                    0.42814822
                ],
                "xyz": [
                    7.872183266324479,
                    2.4207693795179175,
                    4.054457406945197
                ],
                "label": "O",
                "properties": {}
            },
            {
                "species": [
                    {
                        "element": "O",
                        "occu": 1
                    }
                ],
                "abc": [
                    0.16798815,
                    0.02364257,
                    0.13547637
                ],
                "xyz": [
                    1.603224018104874,
                    0.2176422002098129,
                    1.2827506582517298
                ],
                "label": "O",
                "properties": {}
            }
        ]
    },
    "spacegroup": {
        "source": "spglib",
        "symbol": "P-1",
        "number": 2,
        "point_group": "-1",
        "crystal_system": "triclinic",
        "hall": "-P 1"
    },
    "dielectric": {
        "epsilon_ionic": [
            [
                4.36184882,
                -0.38362665,
                0.12903459
            ],
            [
                -0.38362665,
                5.10672311,
                -0.45912839
            ],
            [
                0.12903459,
                -0.45912839,
                4.18322657
            ]
        ],
        "epsilon_ionic_avg": 4.5505995000000015,
        "epsilon_ionic_eig": [
            5.446558211225335,
            4.2143934891239425,
            3.9908467996507295
        ],
        "epsilon_electronic": [
            [
                3.10899043,
                -0.00737672,
                0.02014634
            ],
            [
                -0.00737618,
                3.13736216,
                0.03712816
            ],
            [
                0.02014483,
                0.03712799,
                3.13891125
            ]
        ],
        "epsilon_electronic_avg": 3.12842128,
        "epsilon_electronic_eig": [
            3.0848405266311363,
            3.1237908810949313,
            3.176632432273933
        ]
    },
    "phonon": {
        "lowest_freq": -0.11211746924070623,
        "frequency": [
            -0.11211746924070623,
            -0.04165456274818354,
            -0.03254620489061301,
            1.5563902995179968,
            1.8972085278781996,
            1.9891358245948418,
            2.2420216137998965,
            2.390538208077001,
            2.4540979814217643,
            2.6009795876491646,
            2.8102937257873313,
            3.11278136691311,
            3.1663585167485966,
            3.248193325727866,
            3.277723540656144,
            3.4047099379365706,
            3.439007424124455,
            3.811376702948518,
            3.8231283543171166,
            3.856840855846886,
            3.971119720171395,
            4.154021173093176,
            4.19861467456105,
            4.375732817200691,
            4.414455506238812,
            4.608721346156675,
            4.89931455008495,
            5.120804680175437,
            5.158423087499079,
            5.3412842200068305,
            5.390662129335561,
            5.454511626627444,
            5.623344690337737,
            5.743978664318113,
            5.782853121729937,
            5.894611741317694,
            6.506751929668837,
            6.7302546221929935,
            6.876723424397737,
            7.149591439611234,
            7.231914728894954,
            7.362014885138162,
            7.7944836092016025,
            7.881506496760519,
            8.474525836448684,
            8.711909176620521,
            14.939260068783122,
            14.962322537011566,
            15.044386620189249,
            15.332784026075887,
            15.903996932905425,
            16.432875031302334,
            16.994672542207304,
            17.030796861386545
        ]
    },
    "born_effective_charge": {
        "avg_abs_trace": 1.6044772222222226,
        "tensors": [
            [
                [
                    1.32535,
                    -0.04221,
                    0.11873
                ],
                [
                    -0.12833,
                    1.03922,
                    -0.01437
                ],
                [
                    0.07034,
                    -0.06236,
                    1.14185
                ]
            ],
            [
                [
                    0.93164,
                    0.1507,
                    -0.02801
                ],
                [
                    0.2084,
                    1.17817,
                    0.1218
                ],
                [
                    -0.05856,
                    0.06885,
                    1.16283
                ]
            ],
            [
                [
                    1.11348,
                    -0.05679,
                    0.01703
                ],
                [
                    -0.08915,
                    1.19309,
                    -0.00734
                ],
                [
                    -0.12512,
                    -0.05534,
                    1.13949
                ]
            ],
            [
                [
                    1.13962,
                    -0.04207,
                    -0.06684
                ],
                [
                    -0.01598,
                    1.12508,
                    -0.05225
                ],
                [
                    0.12068,
                    0.07995,
                    1.08699
                ]
            ],
            [
                [
                    1.1397,
                    -0.04225,
                    -0.06697
                ],
                [
                    -0.01589,
                    1.12514,
                    -0.05226
                ],
                [
                    0.12072,
                    0.07994,
                    1.08685
                ]
            ],
            [
                [
                    0.93165,
                    0.15077,
                    -0.02797
                ],
                [
                    0.20852,
                    1.17807,
                    0.12188
                ],
                [
                    -0.05862,
                    0.06885,
                    1.16286
                ]
            ],
            [
                [
                    1.32532,
                    -0.04227,
                    0.11875
                ],
                [
                    -0.12843,
                    1.03919,
                    -0.01427
                ],
                [
                    0.07039,
                    -0.06221,
                    1.14177
                ]
            ],
            [
                [
                    1.11356,
                    -0.05679,
                    0.01696
                ],
                [
                    -0.089,
                    1.19303,
                    -0.0074
                ],
                [
                    -0.12502,
                    -0.05547,
                    1.13938
                ]
            ],
            [
                [
                    2.62634,
                    0.01456,
                    0.01308
                ],
                [
                    0.03366,
                    2.67919,
                    0.08998
                ],
                [
                    0.03372,
                    0.10574,
                    2.77848
                ]
            ],
            [
                [
                    2.6262,
                    0.01464,
                    0.01286
                ],
                [
                    0.03358,
                    2.67911,
                    0.08969
                ],
                [
                    0.0336,
                    0.10566,
                    2.77824
                ]
            ],
            [
                [
                    -2.00479,
                    -0.42346,
                    0.22035
                ],
                [
                    -0.43602,
                    -1.74406,
                    0.14645
                ],
                [
                    0.29232,
                    0.16696,
                    -1.63856
                ]
            ],
            [
                [
                    -1.5449,
                    0.1819,
                    -0.24219
                ],
                [
                    0.23424,
                    -2.06725,
                    0.34628
                ],
                [
                    -0.18302,
                    0.32646,
                    -1.81602
                ]
            ],
            [
                [
                    -2.00481,
                    -0.42358,
                    0.2202
                ],
                [
                    -0.43503,
                    -1.74369,
                    0.14641
                ],
                [
                    0.29327,
                    0.16715,
                    -1.63856
                ]
            ],
            [
                [
                    -1.54467,
                    0.18181,
                    -0.24191
                ],
                [
                    0.23466,
                    -2.06703,
                    0.34626
                ],
                [
                    -0.18278,
                    0.32661,
                    -1.81599
                ]
            ],
            [
                [
                    -1.93504,
                    0.42969,
                    0.30445
                ],
                [
                    0.34983,
                    -1.76524,
                    -0.35734
                ],
                [
                    0.25405,
                    -0.23492,
                    -1.74977
                ]
            ],
            [
                [
                    -1.65179,
                    -0.21229,
                    -0.3365
                ],
                [
                    -0.15721,
                    -1.63837,
                    -0.27317
                ],
                [
                    -0.40481,
                    -0.39543,
                    -2.1048
                ]
            ],
            [
                [
                    -1.65165,
                    -0.21233,
                    -0.33656
                ],
                [
                    -0.15735,
                    -1.63883,
                    -0.27351
                ],
                [
                    -0.40504,
                    -0.39575,
                    -2.10532
                ]
            ],
            [
                [
                    -1.9352,
                    0.42998,
                    0.30456
                ],
                [
                    0.34951,
                    -1.76483,
                    -0.35685
                ],
                [
                    0.25387,
                    -0.2347,
                    -1.74971
                ]
            ]
        ]
    },
    "band_gap": 1.6810999999999998,
    "is_direct": false,
    "formula": "K4PbO4"
}