{
    "mp_id": "mp-27345",
    "nelements": 3,
    "nsites": 16,
    "elements": [
        "Bi",
        "Na",
        "O"
    ],
    "structure": {
        "@module": "pymatgen.core.structure",
        "@class": "Structure",
        "charge": null,
        "lattice": {
            "matrix": [
                [
                    5.81165621,
                    0.0,
                    0.00027592
                ],
                [
                    0.0,
                    6.65644405,
                    0.0
                ],
                [
                    -1.91637194,
                    0.0,
                    5.31657755
                ]
            ],
            "a": 5.811656216549927,
            "b": 6.65644405,
            "c": 5.651413828201166,
            "alpha": 90.0,
            "beta": 109.81908810681334,
            "gamma": 90.0,
            "volume": 205.67513294693362
        },
        "sites": [
            {
                "species": [
                    {
                        "element": "Na",
                        "occu": 1
                    }
                ],
                "abc": [
                    0.0,
                    0.38149993,
                    0.75
                ],
                "xyz": [
                    -1.437278955,
                    2.5394329391239165,
                    3.9874331625
                ],
                "label": "Na",
                "properties": {}
            },
            {
                "species": [
                    {
                        "element": "Na",
                        "occu": 1
                    }
                ],
                "abc": [
                    0.5,
                    0.39793275,
                    0.25
                ],
                "xyz": [
                    2.42673512,
                    2.6488170860376377,
                    1.3292823475
                ],
                "label": "Na",
                "properties": {}
            },
            {
                "species": [
                    {
                        "element": "Na",
                        "occu": 1
                    }
                ],
                "abc": [
                    0.5,
                    0.13032985,
                    0.75
                ],
                "xyz": [
                    1.4685491499999999,
                    0.8675333545698926,
                    3.9875711225
                ],
                "label": "Na",
                "properties": {}
            },
            {
                "species": [
                    {
                        "element": "Na",
                        "occu": 1
                    }
                ],
                "abc": [
                    0.5,
                    0.86967015,
                    0.25
                ],
                "xyz": [
                    2.42673512,
                    5.788910695430108,
                    1.3292823475
                ],
                "label": "Na",
                "properties": {}
            },
            {
                "species": [
                    {
                        "element": "Na",
                        "occu": 1
                    }
                ],
                "abc": [
                    0.0,
                    0.61850007,
                    0.25
                ],
                "xyz": [
                    -0.479092985,
                    4.117011110876083,
                    1.3291443875
                ],
                "label": "Na",
                "properties": {}
            },
            {
                "species": [
                    {
                        "element": "Na",
                        "occu": 1
                    }
                ],
                "abc": [
                    0.5,
                    0.60206725,
                    0.75
                ],
                "xyz": [
                    1.4685491499999999,
                    4.007626963962363,
                    3.9875711225
                ],
                "label": "Na",
                "properties": {}
            },
            {
                "species": [
                    {
                        "element": "Bi",
                        "occu": 1
                    }
                ],
                "abc": [
                    0.0,
                    0.86218191,
                    0.75
                ],
                "xyz": [
                    -1.437278955,
                    5.739065644837136,
                    3.9874331625
                ],
                "label": "Bi",
                "properties": {}
            },
            {
                "species": [
                    {
                        "element": "Bi",
                        "occu": 1
                    }
                ],
                "abc": [
                    0.0,
                    0.13781809,
                    0.25
                ],
                "xyz": [
                    -0.479092985,
                    0.9173784051628645,
                    1.3291443875
                ],
                "label": "Bi",
                "properties": {}
            },
            {
                "species": [
                    {
                        "element": "O",
                        "occu": 1
                    }
                ],
                "abc": [
                    0.23842993,
                    0.65017664,
                    0.97160844
                ],
                "xyz": [
                    -0.4762903677488084,
                    4.327864426776992,
                    5.165697407080807
                ],
                "label": "O",
                "properties": {}
            },
            {
                "species": [
                    {
                        "element": "O",
                        "occu": 1
                    }
                ],
                "abc": [
                    0.76157007,
                    0.65017664,
                    0.52839156
                ],
                "xyz": [
                    3.4133886677488086,
                    4.327864426776992,
                    2.8094448379191923
                ],
                "label": "O",
                "properties": {}
            },
            {
                "species": [
                    {
                        "element": "O",
                        "occu": 1
                    }
                ],
                "abc": [
                    0.76157007,
                    0.34982336,
                    0.02839156
                ],
                "xyz": [
                    4.371574637748808,
                    2.3285796232230083,
                    0.1511560629191924
                ],
                "label": "O",
                "properties": {}
            },
            {
                "species": [
                    {
                        "element": "O",
                        "occu": 1
                    }
                ],
                "abc": [
                    0.23842993,
                    0.34982336,
                    0.47160844
                ],
                "xyz": [
                    0.48189560225119166,
                    2.3285796232230083,
                    2.5074086320808076
                ],
                "label": "O",
                "properties": {}
            },
            {
                "species": [
                    {
                        "element": "O",
                        "occu": 1
                    }
                ],
                "abc": [
                    0.21276834,
                    0.89745696,
                    0.49875558
                ],
                "xyz": [
                    0.2807352460219662,
                    5.973872041523088,
                    2.6517314266056013
                ],
                "label": "O",
                "properties": {}
            },
            {
                "species": [
                    {
                        "element": "O",
                        "occu": 1
                    }
                ],
                "abc": [
                    0.78723166,
                    0.89745696,
                    0.00124442
                ],
                "xyz": [
                    4.572734993978034,
                    5.973872041523088,
                    0.0068332683943982
                ],
                "label": "O",
                "properties": {}
            },
            {
                "species": [
                    {
                        "element": "O",
                        "occu": 1
                    }
                ],
                "abc": [
                    0.21276834,
                    0.10254304,
                    0.99875558
                ],
                "xyz": [
                    -0.6774507239780339,
                    0.682572008476912,
                    5.310020201605602
                ],
                "label": "O",
                "properties": {}
            },
            {
                "species": [
                    {
                        "element": "O",
                        "occu": 1
                    }
                ],
                "abc": [
                    0.78723166,
                    0.10254304,
                    0.50124442
                ],
                "xyz": [
                    3.6145490239780336,
                    0.682572008476912,
                    2.6651220433943985
                ],
                "label": "O",
                "properties": {}
            }
        ]
    },
    "spacegroup": {
        "source": "spglib",
        "symbol": "P2/c",
        "number": 13,
        "point_group": "2/m",
        "crystal_system": "monoclinic",
        "hall": "-P 2yc"
    },
    "dielectric": {
        "epsilon_ionic": [
            [
                5.60179955,
                4e-08,
                -0.92508293
            ],
            [
                4e-08,
                6.29005648,
                2e-08
            ],
            [
                -0.92508293,
                2e-08,
                8.95406748
            ]
        ],
        "epsilon_ionic_avg": 6.948641170000002,
        "epsilon_ionic_eig": [
            9.192405634411514,
            5.363461395588487,
            6.290056480000003
        ],
        "epsilon_electronic": [
            [
                3.57631988,
                0.0,
                -0.17971747
            ],
            [
                0.0,
                3.99755154,
                0.0
            ],
            [
                -0.17972028,
                0.0,
                4.45504887
            ]
        ],
        "epsilon_electronic_avg": 4.009640096666666,
        "epsilon_electronic_eig": [
            3.540984434515596,
            4.490384315484404,
            3.99755154
        ]
    },
    "phonon": {
        "lowest_freq": -0.05966955644239345,
        "frequency": [
            -0.05966955644239345,
            -0.056732925988851185,
            -0.01898227929489584,
            2.670350229659997,
            3.0866754744567313,
            3.7431544760636912,
            3.7465976103263277,
            3.9273601931365785,
            4.213261892213015,
            4.264121654238329,
            4.513339599578814,
            4.938834300523477,
            5.033174076348631,
            5.406411987824847,
            5.91084789037507,
            6.1184230814051395,
            6.149487325980881,
            6.252403839608112,
            6.547300321604699,
            7.2427310881046525,
            7.4278796534155065,
            7.428596412469193,
            7.493504697068378,
            7.567317878956992,
            7.813371555265867,
            7.98540866897848,
            8.034349648788963,
            8.1308244616407,
            9.082992334697677,
            9.523016385488672,
            9.533059118519896,
            9.587960348400232,
            9.908153748289246,
            10.12375696048646,
            10.627588046567308,
            11.10520483865249,
            11.683118208315125,
            12.007412065734213,
            12.400728731985557,
            12.483728776905638,
            12.706088212763033,
            13.836598360691674,
            14.266894266274686,
            14.324463526490934,
            15.538004291344002,
            15.634950679261037,
            16.51133303159713,
            17.183558713851458
        ]
    },
    "born_effective_charge": {
        "avg_abs_trace": 1.7637677083333332,
        "tensors": [
            [
                [
                    0.66357,
                    -1e-05,
                    -0.1532
                ],
                [
                    0.0,
                    1.2532,
                    0.0
                ],
                [
                    -0.23369,
                    5e-05,
                    0.93674
                ]
            ],
            [
                [
                    1.25314,
                    -0.0,
                    0.1934
                ],
                [
                    0.0,
                    1.37605,
                    0.0
                ],
                [
                    0.32203,
                    3e-05,
                    1.04007
                ]
            ],
            [
                [
                    1.39067,
                    -2e-05,
                    0.07919
                ],
                [
                    0.0,
                    0.65445,
                    0.0
                ],
                [
                    0.04884,
                    3e-05,
                    1.05534
                ]
            ],
            [
                [
                    1.39067,
                    2e-05,
                    0.07919
                ],
                [
                    0.0,
                    0.65442,
                    0.0
                ],
                [
                    0.04884,
                    -3e-05,
                    1.05534
                ]
            ],
            [
                [
                    0.66357,
                    1e-05,
                    -0.1532
                ],
                [
                    0.0,
                    1.25312,
                    0.0
                ],
                [
                    -0.23369,
                    -5e-05,
                    0.93674
                ]
            ],
            [
                [
                    1.25314,
                    0.0,
                    0.1934
                ],
                [
                    0.0,
                    1.37606,
                    0.0
                ],
                [
                    0.32203,
                    -3e-05,
                    1.04007
                ]
            ],
            [
                [
                    2.93358,
                    0.00011,
                    -0.63588
                ],
                [
                    0.0,
                    3.67282,
                    0.0
                ],
                [
                    -0.83129,
                    -0.0002,
                    4.93569
                ]
            ],
            [
                [
                    2.93358,
                    -0.00011,
                    -0.63588
                ],
                [
                    0.0,
                    3.67271,
                    0.0
                ],
                [
                    -0.83129,
                    0.0002,
                    4.93569
                ]
            ],
            [
                [
                    -1.50988,
                    0.36738,
                    -0.23825
                ],
                [
                    0.28668,
                    -1.92613,
                    0.36429
                ],
                [
                    -0.0817,
                    0.21593,
                    -1.67588
                ]
            ],
            [
                [
                    -1.5099,
                    -0.36768,
                    -0.23812
                ],
                [
                    -0.28668,
                    -1.92613,
                    -0.36429
                ],
                [
                    -0.08154,
                    -0.21564,
                    -1.67609
                ]
            ],
            [
                [
                    -1.5099,
                    0.36768,
                    -0.23812
                ],
                [
                    0.28627,
                    -1.92584,
                    0.3637
                ],
                [
                    -0.08154,
                    0.21564,
                    -1.67609
                ]
            ],
            [
                [
                    -1.50988,
                    -0.36738,
                    -0.23825
                ],
                [
                    -0.28627,
                    -1.92584,
                    -0.3637
                ],
                [
                    -0.0817,
                    -0.21593,
                    -1.67588
                ]
            ],
            [
                [
                    -1.61067,
                    -0.09311,
                    0.49615
                ],
                [
                    -0.07389,
                    -1.55194,
                    0.5065
                ],
                [
                    0.42868,
                    0.63763,
                    -2.30797
                ]
            ],
            [
                [
                    -1.6105,
                    0.09315,
                    0.4967
                ],
                [
                    0.07389,
                    -1.55194,
                    -0.5065
                ],
                [
                    0.42867,
                    -0.63738,
                    -2.3079
                ]
            ],
            [
                [
                    -1.61067,
                    0.09311,
                    0.49615
                ],
                [
                    0.07396,
                    -1.55251,
                    -0.50717
                ],
                [
                    0.42868,
                    -0.63763,
                    -2.30797
                ]
            ],
            [
                [
                    -1.6105,
                    -0.09315,
                    0.4967
                ],
                [
                    -0.07396,
                    -1.55251,
                    0.50717
                ],
                [
                    0.42867,
                    0.63738,
                    -2.3079
                ]
            ]
        ]
    },
    "band_gap": 1.1242999999999999,
    "is_direct": false,
    "formula": "Na3BiO4"
}