{
    "mp_id": "mp-28365",
    "nelements": 3,
    "nsites": 24,
    "elements": [
        "Au",
        "Na",
        "O"
    ],
    "structure": {
        "@module": "pymatgen.core.structure",
        "@class": "Structure",
        "charge": null,
        "lattice": {
            "matrix": [
                [
                    9.59236017,
                    0.0,
                    0.0
                ],
                [
                    0.0,
                    9.59236017,
                    0.0
                ],
                [
                    0.0,
                    0.0,
                    4.52710224
                ]
            ],
            "a": 9.59236017,
            "b": 9.59236017,
            "c": 4.52710224,
            "alpha": 90.0,
            "beta": 90.0,
            "gamma": 90.0,
            "volume": 416.5539498748679
        },
        "sites": [
            {
                "species": [
                    {
                        "element": "Na",
                        "occu": 1
                    }
                ],
                "abc": [
                    0.65594554,
                    0.65594554,
                    0.5
                ],
                "xyz": [
                    6.292065871585142,
                    6.292065871585142,
                    2.26355112
                ],
                "label": "Na",
                "properties": {}
            },
            {
                "species": [
                    {
                        "element": "Na",
                        "occu": 1
                    }
                ],
                "abc": [
                    0.51413796,
                    0.15057216,
                    0.0
                ],
                "xyz": [
                    4.931796489389053,
                    1.444342390294867,
                    0.0
                ],
                "label": "Na",
                "properties": {}
            },
            {
                "species": [
                    {
                        "element": "Na",
                        "occu": 1
                    }
                ],
                "abc": [
                    0.65057216,
                    0.98586204,
                    0.5
                ],
                "xyz": [
                    6.240522475294866,
                    9.456743765610947,
                    2.26355112
                ],
                "label": "Na",
                "properties": {}
            },
            {
                "species": [
                    {
                        "element": "Na",
                        "occu": 1
                    }
                ],
                "abc": [
                    0.48586204,
                    0.84942784,
                    0.0
                ],
                "xyz": [
                    4.660563680610946,
                    8.148017779705132,
                    0.0
                ],
                "label": "Na",
                "properties": {}
            },
            {
                "species": [
                    {
                        "element": "Na",
                        "occu": 1
                    }
                ],
                "abc": [
                    0.01413796,
                    0.34942784,
                    0.5
                ],
                "xyz": [
                    0.13561640438905317,
                    3.3518376947051323,
                    2.26355112
                ],
                "label": "Na",
                "properties": {}
            },
            {
                "species": [
                    {
                        "element": "Na",
                        "occu": 1
                    }
                ],
                "abc": [
                    0.98586204,
                    0.65057216,
                    0.5
                ],
                "xyz": [
                    9.456743765610947,
                    6.240522475294866,
                    2.26355112
                ],
                "label": "Na",
                "properties": {}
            },
            {
                "species": [
                    {
                        "element": "Na",
                        "occu": 1
                    }
                ],
                "abc": [
                    0.15057216,
                    0.51413796,
                    0.0
                ],
                "xyz": [
                    1.444342390294867,
                    4.931796489389053,
                    0.0
                ],
                "label": "Na",
                "properties": {}
            },
            {
                "species": [
                    {
                        "element": "Na",
                        "occu": 1
                    }
                ],
                "abc": [
                    0.84942784,
                    0.48586204,
                    0.0
                ],
                "xyz": [
                    8.148017779705132,
                    4.660563680610946,
                    0.0
                ],
                "label": "Na",
                "properties": {}
            },
            {
                "species": [
                    {
                        "element": "Na",
                        "occu": 1
                    }
                ],
                "abc": [
                    0.15594554,
                    0.84405446,
                    0.0
                ],
                "xyz": [
                    1.4958857865851416,
                    8.096474383414858,
                    0.0
                ],
                "label": "Na",
                "properties": {}
            },
            {
                "species": [
                    {
                        "element": "Na",
                        "occu": 1
                    }
                ],
                "abc": [
                    0.34405446,
                    0.34405446,
                    0.5
                ],
                "xyz": [
                    3.3002942984148578,
                    3.3002942984148578,
                    2.26355112
                ],
                "label": "Na",
                "properties": {}
            },
            {
                "species": [
                    {
                        "element": "Na",
                        "occu": 1
                    }
                ],
                "abc": [
                    0.34942784,
                    0.01413796,
                    0.5
                ],
                "xyz": [
                    3.3518376947051323,
                    0.13561640438905317,
                    2.26355112
                ],
                "label": "Na",
                "properties": {}
            },
            {
                "species": [
                    {
                        "element": "Na",
                        "occu": 1
                    }
                ],
                "abc": [
                    0.84405446,
                    0.15594554,
                    0.0
                ],
                "xyz": [
                    8.096474383414858,
                    1.4958857865851416,
                    0.0
                ],
                "label": "Na",
                "properties": {}
            },
            {
                "species": [
                    {
                        "element": "Au",
                        "occu": 1
                    }
                ],
                "abc": [
                    0.8329218,
                    0.8329218,
                    0.0
                ],
                "xyz": [
                    7.989685899044706,
                    7.989685899044706,
                    0.0
                ],
                "label": "Au",
                "properties": {}
            },
            {
                "species": [
                    {
                        "element": "Au",
                        "occu": 1
                    }
                ],
                "abc": [
                    0.6670782,
                    0.3329218,
                    0.5
                ],
                "xyz": [
                    6.398854355955293,
                    3.1935058140447055,
                    2.26355112
                ],
                "label": "Au",
                "properties": {}
            },
            {
                "species": [
                    {
                        "element": "Au",
                        "occu": 1
                    }
                ],
                "abc": [
                    0.3329218,
                    0.6670782,
                    0.5
                ],
                "xyz": [
                    3.1935058140447055,
                    6.398854355955293,
                    2.26355112
                ],
                "label": "Au",
                "properties": {}
            },
            {
                "species": [
                    {
                        "element": "Au",
                        "occu": 1
                    }
                ],
                "abc": [
                    0.1670782,
                    0.1670782,
                    0.0
                ],
                "xyz": [
                    1.602674270955294,
                    1.602674270955294,
                    0.0
                ],
                "label": "Au",
                "properties": {}
            },
            {
                "species": [
                    {
                        "element": "O",
                        "occu": 1
                    }
                ],
                "abc": [
                    0.01666459,
                    0.31008095,
                    0.0
                ],
                "xyz": [
                    0.1598527493653803,
                    2.9744081542557614,
                    0.0
                ],
                "label": "O",
                "properties": {}
            },
            {
                "species": [
                    {
                        "element": "O",
                        "occu": 1
                    }
                ],
                "abc": [
                    0.98333541,
                    0.68991905,
                    0.0
                ],
                "xyz": [
                    9.43250742063462,
                    6.617952015744238,
                    0.0
                ],
                "label": "O",
                "properties": {}
            },
            {
                "species": [
                    {
                        "element": "O",
                        "occu": 1
                    }
                ],
                "abc": [
                    0.81008095,
                    0.48333541,
                    0.5
                ],
                "xyz": [
                    7.770588239255761,
                    4.636327335634619,
                    2.26355112
                ],
                "label": "O",
                "properties": {}
            },
            {
                "species": [
                    {
                        "element": "O",
                        "occu": 1
                    }
                ],
                "abc": [
                    0.18991905,
                    0.51666459,
                    0.5
                ],
                "xyz": [
                    1.8217719307442384,
                    4.95603283436538,
                    2.26355112
                ],
                "label": "O",
                "properties": {}
            },
            {
                "species": [
                    {
                        "element": "O",
                        "occu": 1
                    }
                ],
                "abc": [
                    0.51666459,
                    0.18991905,
                    0.5
                ],
                "xyz": [
                    4.95603283436538,
                    1.8217719307442384,
                    2.26355112
                ],
                "label": "O",
                "properties": {}
            },
            {
                "species": [
                    {
                        "element": "O",
                        "occu": 1
                    }
                ],
                "abc": [
                    0.68991905,
                    0.98333541,
                    0.0
                ],
                "xyz": [
                    6.617952015744238,
                    9.43250742063462,
                    0.0
                ],
                "label": "O",
                "properties": {}
            },
            {
                "species": [
                    {
                        "element": "O",
                        "occu": 1
                    }
                ],
                "abc": [
                    0.31008095,
                    0.01666459,
                    0.0
                ],
                "xyz": [
                    2.9744081542557614,
                    0.1598527493653803,
                    0.0
                ],
                "label": "O",
                "properties": {}
            },
            {
                "species": [
                    {
                        "element": "O",
                        "occu": 1
                    }
                ],
                "abc": [
                    0.48333541,
                    0.81008095,
                    0.5
                ],
                "xyz": [
                    4.636327335634619,
                    7.770588239255761,
                    2.26355112
                ],
                "label": "O",
                "properties": {}
            }
        ]
    },
    "spacegroup": {
        "source": "spglib",
        "symbol": "P4_2/mnm",
        "number": 136,
        "point_group": "4/mmm",
        "crystal_system": "tetragonal",
        "hall": "-P 4n 2n"
    },
    "dielectric": {
        "epsilon_ionic": [
            [
                3.89667172,
                -0.0,
                -0.0
            ],
            [
                -0.0,
                3.89657921,
                -0.0
            ],
            [
                -0.0,
                -0.0,
                3.57611554
            ]
        ],
        "epsilon_ionic_avg": 3.7897888233333332,
        "epsilon_ionic_eig": [
            3.89667172,
            3.89657921,
            3.57611554
        ],
        "epsilon_electronic": [
            [
                3.33862873,
                -0.0,
                0.0
            ],
            [
                0.0,
                3.33862873,
                0.0
            ],
            [
                0.0,
                0.0,
                3.01599122
            ]
        ],
        "epsilon_electronic_avg": 3.2310828933333333,
        "epsilon_electronic_eig": [
            3.33862873,
            3.33862873,
            3.01599122
        ]
    },
    "phonon": {
        "lowest_freq": -0.036243059633902425,
        "frequency": [
            -0.036243059633902425,
            -0.01843192248412478,
            -0.01843192248412478,
            1.7073556623328183,
            1.7073556623328183,
            1.8310883549771635,
            1.8372795327292517,
            1.9049172521069293,
            1.9967857237979365,
            2.0620023929527354,
            2.0620023929527354,
            2.16824525318984,
            2.264367354095916,
            2.3284758618948684,
            2.3284758618948684,
            2.6890510625237516,
            2.838573945202752,
            3.12387229021881,
            3.12387229021881,
            3.1449794444080403,
            3.4949213942213295,
            4.2563127453096845,
            4.273899841863167,
            4.273899841863167,
            4.348746771993343,
            4.427832831673879,
            4.4492997958378995,
            4.4492997958378995,
            4.7591978329696705,
            4.7591978329696705,
            4.926022396914556,
            5.373851772141289,
            5.373851772141289,
            5.455003405745863,
            5.455003405745863,
            5.629627741615719,
            5.8330996031062385,
            5.8330996031062385,
            5.8491981361627134,
            6.101365517143288,
            6.682422490067558,
            6.811038676163326,
            6.84306533852651,
            7.231873820337962,
            7.259593662299532,
            7.286429345708831,
            7.524873570281384,
            7.524873570281384,
            9.743376288785809,
            9.887394424111896,
            9.887394424111896,
            10.003681921862151,
            10.003681921862151,
            10.282658104297173,
            10.494090222753085,
            10.582082362585208,
            10.662096112162837,
            10.765366948382274,
            10.765366948382274,
            10.986409877062034,
            11.258223525982318,
            11.283992357643035,
            11.902104954418798,
            11.902104954418798,
            16.334920595962352,
            16.63572868441873,
            16.63572868441873,
            17.849142416903927,
            17.874484999063572,
            17.874484999063572,
            17.963565237292297,
            18.263951228971457
        ]
    },
    "born_effective_charge": {
        "avg_abs_trace": 1.0269897222222222,
        "tensors": [
            [
                [
                    1.0996,
                    0.03012,
                    0.0
                ],
                [
                    0.03012,
                    1.09958,
                    0.0
                ],
                [
                    -0.0,
                    -0.0,
                    0.9428
                ]
            ],
            [
                [
                    1.12102,
                    0.06955,
                    0.0
                ],
                [
                    -0.10646,
                    0.92552,
                    0.0
                ],
                [
                    -3e-05,
                    -4e-05,
                    1.00389
                ]
            ],
            [
                [
                    0.92553,
                    0.10646,
                    0.0
                ],
                [
                    -0.06949,
                    1.12099,
                    0.0
                ],
                [
                    -4e-05,
                    3e-05,
                    1.00389
                ]
            ],
            [
                [
                    1.121,
                    0.06949,
                    0.0
                ],
                [
                    -0.10644,
                    0.92556,
                    0.0
                ],
                [
                    3e-05,
                    4e-05,
                    1.00389
                ]
            ],
            [
                [
                    1.12102,
                    -0.06955,
                    0.0
                ],
                [
                    0.10644,
                    0.92556,
                    0.0
                ],
                [
                    -3e-05,
                    4e-05,
                    1.00389
                ]
            ],
            [
                [
                    1.121,
                    -0.06949,
                    0.0
                ],
                [
                    0.10646,
                    0.92552,
                    0.0
                ],
                [
                    3e-05,
                    -4e-05,
                    1.00389
                ]
            ],
            [
                [
                    0.92553,
                    -0.10646,
                    0.0
                ],
                [
                    0.06955,
                    1.12101,
                    0.0
                ],
                [
                    -4e-05,
                    -3e-05,
                    1.00389
                ]
            ],
            [
                [
                    0.92558,
                    -0.10644,
                    0.0
                ],
                [
                    0.06949,
                    1.12099,
                    0.0
                ],
                [
                    4e-05,
                    3e-05,
                    1.00389
                ]
            ],
            [
                [
                    1.0996,
                    -0.03012,
                    0.0
                ],
                [
                    -0.03004,
                    1.09963,
                    0.0
                ],
                [
                    -0.0,
                    0.0,
                    0.9428
                ]
            ],
            [
                [
                    1.09964,
                    0.03004,
                    0.0
                ],
                [
                    0.03004,
                    1.09963,
                    0.0
                ],
                [
                    0.0,
                    0.0,
                    0.9428
                ]
            ],
            [
                [
                    0.92558,
                    0.10644,
                    0.0
                ],
                [
                    -0.06955,
                    1.12101,
                    0.0
                ],
                [
                    4e-05,
                    -3e-05,
                    1.00389
                ]
            ],
            [
                [
                    1.09964,
                    -0.03004,
                    0.0
                ],
                [
                    -0.03012,
                    1.09958,
                    0.0
                ],
                [
                    0.0,
                    -0.0,
                    0.9428
                ]
            ],
            [
                [
                    0.51938,
                    -1.57474,
                    0.0
                ],
                [
                    -1.57469,
                    0.51943,
                    0.0
                ],
                [
                    -1e-05,
                    -1e-05,
                    -1.05412
                ]
            ],
            [
                [
                    0.5193,
                    1.57498,
                    0.0
                ],
                [
                    1.57469,
                    0.51943,
                    0.0
                ],
                [
                    1e-05,
                    -1e-05,
                    -1.05412
                ]
            ],
            [
                [
                    0.51938,
                    1.57474,
                    0.0
                ],
                [
                    1.57492,
                    0.51936,
                    0.0
                ],
                [
                    -1e-05,
                    1e-05,
                    -1.05412
                ]
            ],
            [
                [
                    0.5193,
                    -1.57498,
                    0.0
                ],
                [
                    -1.57492,
                    0.51936,
                    0.0
                ],
                [
                    1e-05,
                    1e-05,
                    -1.05412
                ]
            ],
            [
                [
                    -1.93522,
                    0.87202,
                    0.0
                ],
                [
                    0.75406,
                    -1.73038,
                    0.0
                ],
                [
                    -0.00017,
                    3e-05,
                    -0.94823
                ]
            ],
            [
                [
                    -1.93518,
                    0.87185,
                    0.0
                ],
                [
                    0.75385,
                    -1.73028,
                    0.0
                ],
                [
                    0.00017,
                    -3e-05,
                    -0.94823
                ]
            ],
            [
                [
                    -1.73037,
                    -0.75407,
                    0.0
                ],
                [
                    -0.87185,
                    -1.93519,
                    0.0
                ],
                [
                    3e-05,
                    0.00017,
                    -0.94823
                ]
            ],
            [
                [
                    -1.73027,
                    -0.75385,
                    0.0
                ],
                [
                    -0.87202,
                    -1.93523,
                    0.0
                ],
                [
                    -3e-05,
                    -0.00017,
                    -0.94823
                ]
            ],
            [
                [
                    -1.93522,
                    -0.87202,
                    0.0
                ],
                [
                    -0.75385,
                    -1.73028,
                    0.0
                ],
                [
                    -0.00017,
                    -3e-05,
                    -0.94823
                ]
            ],
            [
                [
                    -1.73027,
                    0.75385,
                    0.0
                ],
                [
                    0.87185,
                    -1.93519,
                    0.0
                ],
                [
                    -3e-05,
                    0.00017,
                    -0.94823
                ]
            ],
            [
                [
                    -1.73037,
                    0.75407,
                    0.0
                ],
                [
                    0.87202,
                    -1.93523,
                    0.0
                ],
                [
                    3e-05,
                    -0.00017,
                    -0.94823
                ]
            ],
            [
                [
                    -1.93518,
                    -0.87185,
                    0.0
                ],
                [
                    -0.75406,
                    -1.73038,
                    0.0
                ],
                [
                    0.00017,
                    3e-05,
                    -0.94823
                ]
            ]
        ]
    },
    "band_gap": 2.0193000000000003,
    "is_direct": true,
    "formula": "Na3AuO2"
}