{
    "mp_id": "mp-20546",
    "nelements": 3,
    "nsites": 18,
    "elements": [
        "Ba",
        "In",
        "O"
    ],
    "structure": {
        "@module": "pymatgen.core.structure",
        "@class": "Structure",
        "charge": null,
        "lattice": {
            "matrix": [
                [
                    -8.32641806,
                    3.10746429,
                    3.00810242
                ],
                [
                    8.32641806,
                    -3.10746429,
                    3.00810242
                ],
                [
                    8.32641806,
                    3.10746429,
                    -3.00810242
                ]
            ],
            "a": 9.38265699003908,
            "b": 9.38265699003908,
            "c": 9.38265699003908,
            "alpha": 54.896765561972266,
            "beta": 141.31767454231198,
            "gamma": 142.6012803144228,
            "volume": 311.3271309973418
        },
        "sites": [
            {
                "species": [
                    {
                        "element": "Ba",
                        "occu": 1
                    }
                ],
                "abc": [
                    0.50092744,
                    0.12710479,
                    0.58972139
                ],
                "xyz": [
                    1.797663167867245,
                    2.9941786961423316,
                    0.1152429305162328
                ],
                "label": "Ba",
                "properties": {}
            },
            {
                "species": [
                    {
                        "element": "Ba",
                        "occu": 1
                    }
                ],
                "abc": [
                    0.5373834,
                    0.91120505,
                    0.41027861
                ],
                "xyz": [
                    6.528746565714696,
                    0.11328870132195812,
                    3.123342342413812
                ],
                "label": "Ba",
                "properties": {}
            },
            {
                "species": [
                    {
                        "element": "Ba",
                        "occu": 1
                    }
                ],
                "abc": [
                    0.5373834,
                    0.62710479,
                    0.12617735
                ],
                "xyz": [
                    1.7976631678672446,
                    0.11328559385766829,
                    3.1233453505162325
                ],
                "label": "Ba",
                "properties": {}
            },
            {
                "species": [
                    {
                        "element": "Ba",
                        "occu": 1
                    }
                ],
                "abc": [
                    0.50092744,
                    0.41120505,
                    0.87382265
                ],
                "xyz": [
                    6.528746565714696,
                    2.9941818036066215,
                    0.11523992241381276
                ],
                "label": "Ba",
                "properties": {}
            },
            {
                "species": [
                    {
                        "element": "In",
                        "occu": 1
                    }
                ],
                "abc": [
                    0.92583236,
                    0.24239006,
                    0.1834423
                ],
                "xyz": [
                    -4.163209029999999,
                    2.693812938050934,
                    2.9623194621398907
                ],
                "label": "In",
                "properties": {}
            },
            {
                "species": [
                    {
                        "element": "In",
                        "occu": 1
                    }
                ],
                "abc": [
                    0.05894776,
                    0.74239006,
                    0.8165577
                ],
                "xyz": [
                    12.489627089999999,
                    0.41365135194906655,
                    -0.045782957860109885
                ],
                "label": "In",
                "properties": {}
            },
            {
                "species": [
                    {
                        "element": "In",
                        "occu": 1
                    }
                ],
                "abc": [
                    0.02521458,
                    0.52521458,
                    0.5
                ],
                "xyz": [
                    8.326418059999998,
                    0.0,
                    0.1516960782345671
                ],
                "label": "In",
                "properties": {}
            },
            {
                "species": [
                    {
                        "element": "In",
                        "occu": 1
                    }
                ],
                "abc": [
                    0.02521458,
                    0.02521458,
                    0.0
                ],
                "xyz": [
                    0.0,
                    0.0,
                    0.1516960782345672
                ],
                "label": "In",
                "properties": {}
            },
            {
                "species": [
                    {
                        "element": "O",
                        "occu": 1
                    }
                ],
                "abc": [
                    0.51872739,
                    0.8938113,
                    0.12491609
                ],
                "xyz": [
                    4.163209029999999,
                    -0.7773875671571477,
                    3.8733006591066923
                ],
                "label": "O",
                "properties": {}
            },
            {
                "species": [
                    {
                        "element": "O",
                        "occu": 1
                    }
                ],
                "abc": [
                    0.76889421,
                    0.3938113,
                    0.87508391
                ],
                "xyz": [
                    4.16321735641806,
                    3.884848749692857,
                    0.8651952310042721
                ],
                "label": "O",
                "properties": {}
            },
            {
                "species": [
                    {
                        "element": "O",
                        "occu": 1
                    }
                ],
                "abc": [
                    0.99390725,
                    0.68960665,
                    0.57695426
                ],
                "xyz": [
                    2.2702283587490983,
                    2.738468007838949,
                    3.328644730958329
                ],
                "label": "O",
                "properties": {}
            },
            {
                "species": [
                    {
                        "element": "O",
                        "occu": 1
                    }
                ],
                "abc": [
                    0.1126534,
                    0.41695299,
                    0.42304574
                ],
                "xyz": [
                    6.0561812915686595,
                    0.36899942069998337,
                    0.32054534914177313
                ],
                "label": "O",
                "properties": {}
            },
            {
                "species": [
                    {
                        "element": "O",
                        "occu": 1
                    }
                ],
                "abc": [
                    0.1126534,
                    0.18960665,
                    0.19569941
                ],
                "xyz": [
                    2.2702200323310393,
                    0.3689994517746264,
                    0.3205453190607488
                ],
                "label": "O",
                "properties": {}
            },
            {
                "species": [
                    {
                        "element": "O",
                        "occu": 1
                    }
                ],
                "abc": [
                    0.99390725,
                    0.91695299,
                    0.80430059
                ],
                "xyz": [
                    6.0561896179867185,
                    2.7384679767643063,
                    3.3286447610393535
                ],
                "label": "O",
                "properties": {}
            },
            {
                "species": [
                    {
                        "element": "O",
                        "occu": 1
                    }
                ],
                "abc": [
                    0.01473017,
                    0.76080168,
                    0.23511927
                ],
                "xyz": [
                    8.169804630897486,
                    -1.5877658396955097,
                    1.6256163896964435
                ],
                "label": "O",
                "properties": {}
            },
            {
                "species": [
                    {
                        "element": "O",
                        "occu": 1
                    }
                ],
                "abc": [
                    0.5256824,
                    0.77961089,
                    0.76488073
                ],
                "xyz": [
                    8.483031489102514,
                    1.5877658396955094,
                    1.6256163295343953
                ],
                "label": "O",
                "properties": {}
            },
            {
                "species": [
                    {
                        "element": "O",
                        "occu": 1
                    }
                ],
                "abc": [
                    0.01473017,
                    0.27961089,
                    0.75392849
                ],
                "xyz": [
                    8.483031405838332,
                    1.519698481379133,
                    -1.3824860603845806
                ],
                "label": "O",
                "properties": {}
            },
            {
                "species": [
                    {
                        "element": "O",
                        "occu": 1
                    }
                ],
                "abc": [
                    0.5256824,
                    0.26080168,
                    0.24607151
                ],
                "xyz": [
                    -0.15661334583833275,
                    1.5877658086208666,
                    1.6256163596154194
                ],
                "label": "O",
                "properties": {}
            }
        ]
    },
    "spacegroup": {
        "source": "spglib",
        "symbol": "Ima2",
        "number": 46,
        "point_group": "mm2",
        "crystal_system": "orthorhombic",
        "hall": "I 2 -2a"
    },
    "dielectric": {
        "epsilon_ionic": [
            [
                7.55741061,
                0.0,
                -0.00018539
            ],
            [
                0.0,
                8.05674927,
                -6.327e-05
            ],
            [
                -0.00018539,
                -6.327e-05,
                12.01670932
            ]
        ],
        "epsilon_ionic_avg": 9.210289733333335,
        "epsilon_ionic_eig": [
            7.557410602292637,
            12.016709328718262,
            8.056749268989106
        ],
        "epsilon_electronic": [
            [
                4.86805785,
                0.0,
                0.0
            ],
            [
                0.0,
                4.52886711,
                0.0
            ],
            [
                0.0,
                0.0,
                4.51113392
            ]
        ],
        "epsilon_electronic_avg": 4.636019626666666,
        "epsilon_electronic_eig": [
            4.86805785,
            4.52886711,
            4.51113392
        ]
    },
    "phonon": {
        "lowest_freq": -0.01728847491148954,
        "frequency": [
            -0.01728847491148954,
            -0.016641024194572605,
            -0.014534235492900806,
            2.3739289489372895,
            2.4392541968231445,
            2.5762826877909193,
            2.6092494149961025,
            2.780531692810407,
            2.7823055238110093,
            2.820554134064322,
            3.1712297108767147,
            3.291920382859417,
            3.4910293804156365,
            3.707582290705649,
            3.921406956798501,
            3.9640239071650547,
            4.028130247115266,
            4.1854831860368025,
            4.380243270788075,
            4.51759936218041,
            4.749187320689644,
            4.887900918173839,
            5.130195667289219,
            5.265808232512022,
            5.438850188566772,
            5.5125318585185665,
            6.096087355572059,
            6.61110229459,
            6.72583565190045,
            6.834419201698961,
            7.135180618279123,
            7.144955281128453,
            7.452751239686151,
            7.579234476109137,
            7.737748221197379,
            7.75009919693336,
            7.946439777280387,
            8.26870772737548,
            8.674355361027398,
            9.164412511705136,
            10.279851459064698,
            11.161566544033507,
            11.189928097292338,
            11.305141569491582,
            12.40203521058206,
            15.710678425051277,
            15.76696268252321,
            16.329423296976405,
            16.674305419074617,
            16.829774722722235,
            17.099699653222117,
            17.82674331562578,
            18.652838822502908,
            19.701298257378717
        ]
    },
    "born_effective_charge": {
        "avg_abs_trace": 2.5757040740740744,
        "tensors": [
            [
                [
                    2.48938,
                    0.12236,
                    -0.04398
                ],
                [
                    -0.09144,
                    2.70471,
                    0.04083
                ],
                [
                    -0.12611,
                    0.10364,
                    2.5058
                ]
            ],
            [
                [
                    2.48943,
                    0.12221,
                    0.04376
                ],
                [
                    -0.09137,
                    2.70473,
                    -0.04087
                ],
                [
                    0.12611,
                    -0.10364,
                    2.5058
                ]
            ],
            [
                [
                    2.48938,
                    -0.12236,
                    -0.04398
                ],
                [
                    0.09137,
                    2.70473,
                    -0.04087
                ],
                [
                    -0.12611,
                    -0.10364,
                    2.5058
                ]
            ],
            [
                [
                    2.48943,
                    -0.12221,
                    0.04376
                ],
                [
                    0.09144,
                    2.70471,
                    0.04083
                ],
                [
                    0.12611,
                    0.10364,
                    2.5058
                ]
            ],
            [
                [
                    3.47084,
                    -3e-05,
                    -1e-05
                ],
                [
                    -0.0,
                    2.50137,
                    0.15103
                ],
                [
                    0.0,
                    -0.27679,
                    2.78
                ]
            ],
            [
                [
                    3.47084,
                    3e-05,
                    -1e-05
                ],
                [
                    -0.0,
                    2.50131,
                    -0.15109
                ],
                [
                    0.0,
                    0.27679,
                    2.78
                ]
            ],
            [
                [
                    3.43744,
                    0.49592,
                    0.0
                ],
                [
                    -0.27745,
                    3.62364,
                    4e-05
                ],
                [
                    0.0,
                    -0.0,
                    3.5589
                ]
            ],
            [
                [
                    3.43744,
                    -0.49592,
                    0.0
                ],
                [
                    0.27745,
                    3.62364,
                    4e-05
                ],
                [
                    0.0,
                    -0.0,
                    3.5589
                ]
            ],
            [
                [
                    -2.3111,
                    2e-05,
                    3e-05
                ],
                [
                    -0.0,
                    -2.03187,
                    -0.38035
                ],
                [
                    0.0,
                    -0.45388,
                    -2.46178
                ]
            ],
            [
                [
                    -2.3111,
                    -2e-05,
                    3e-05
                ],
                [
                    0.0,
                    -2.03185,
                    0.38034
                ],
                [
                    0.0,
                    0.45388,
                    -2.46178
                ]
            ],
            [
                [
                    -2.88081,
                    0.30416,
                    -0.10994
                ],
                [
                    0.41467,
                    -2.0263,
                    0.05405
                ],
                [
                    -0.10094,
                    0.00087,
                    -1.84631
                ]
            ],
            [
                [
                    -2.88066,
                    0.30419,
                    0.10988
                ],
                [
                    0.41465,
                    -2.02633,
                    -0.05401
                ],
                [
                    0.10094,
                    -0.00087,
                    -1.84631
                ]
            ],
            [
                [
                    -2.88081,
                    -0.30416,
                    -0.10994
                ],
                [
                    -0.41465,
                    -2.02633,
                    -0.05401
                ],
                [
                    -0.10094,
                    -0.00087,
                    -1.84631
                ]
            ],
            [
                [
                    -2.88066,
                    -0.30419,
                    0.10988
                ],
                [
                    -0.41467,
                    -2.0263,
                    0.05405
                ],
                [
                    0.10094,
                    0.00087,
                    -1.84631
                ]
            ],
            [
                [
                    -1.90715,
                    0.02694,
                    -0.00684
                ],
                [
                    0.02122,
                    -2.72498,
                    0.3083
                ],
                [
                    -0.01221,
                    0.37513,
                    -2.59805
                ]
            ],
            [
                [
                    -1.90736,
                    0.02706,
                    0.0071
                ],
                [
                    0.02123,
                    -2.72495,
                    -0.3083
                ],
                [
                    0.01221,
                    -0.37513,
                    -2.59805
                ]
            ],
            [
                [
                    -1.90736,
                    -0.02706,
                    0.0071
                ],
                [
                    -0.02122,
                    -2.72498,
                    0.3083
                ],
                [
                    0.01221,
                    0.37513,
                    -2.59805
                ]
            ],
            [
                [
                    -1.90715,
                    -0.02694,
                    -0.00684
                ],
                [
                    -0.02123,
                    -2.72495,
                    -0.3083
                ],
                [
                    -0.01221,
                    -0.37513,
                    -2.59805
                ]
            ]
        ]
    },
    "band_gap": 0.9602999999999997,
    "is_direct": false,
    "formula": "Ba2In2O5"
}