{
    "mp_id": "mp-28853",
    "nelements": 3,
    "nsites": 20,
    "elements": [
        "Au",
        "La",
        "O"
    ],
    "structure": {
        "@module": "pymatgen.core.structure",
        "@class": "Structure",
        "charge": null,
        "lattice": {
            "matrix": [
                [
                    4.00556192,
                    0.0,
                    0.0
                ],
                [
                    0.0,
                    12.99797861,
                    0.0
                ],
                [
                    0.0,
                    0.0,
                    5.66065067
                ]
            ],
            "a": 4.00556192,
            "b": 12.99797861,
            "c": 5.66065067,
            "alpha": 90.0,
            "beta": 90.0,
            "gamma": 90.0,
            "volume": 294.71729478802007
        },
        "sites": [
            {
                "species": [
                    {
                        "element": "La",
                        "occu": 1
                    }
                ],
                "abc": [
                    0.26412636,
                    0.08129675,
                    0.75
                ],
                "xyz": [
                    1.0579744896842112,
                    1.0566934175625176,
                    4.2454880025
                ],
                "label": "La",
                "properties": {}
            },
            {
                "species": [
                    {
                        "element": "La",
                        "occu": 1
                    }
                ],
                "abc": [
                    0.26412636,
                    0.41870325,
                    0.25
                ],
                "xyz": [
                    1.0579744896842112,
                    5.442295887437483,
                    1.4151626675
                ],
                "label": "La",
                "properties": {}
            },
            {
                "species": [
                    {
                        "element": "La",
                        "occu": 1
                    }
                ],
                "abc": [
                    0.73587364,
                    0.91870325,
                    0.25
                ],
                "xyz": [
                    2.9475874303157887,
                    11.941285192437483,
                    1.4151626675
                ],
                "label": "La",
                "properties": {}
            },
            {
                "species": [
                    {
                        "element": "La",
                        "occu": 1
                    }
                ],
                "abc": [
                    0.73587364,
                    0.58129675,
                    0.75
                ],
                "xyz": [
                    2.9475874303157887,
                    7.555682722562518,
                    4.2454880025
                ],
                "label": "La",
                "properties": {}
            },
            {
                "species": [
                    {
                        "element": "Au",
                        "occu": 1
                    }
                ],
                "abc": [
                    0.07083644,
                    0.82941261,
                    0.75
                ],
                "xyz": [
                    0.2837397466123648,
                    10.780687363644272,
                    4.2454880025
                ],
                "label": "Au",
                "properties": {}
            },
            {
                "species": [
                    {
                        "element": "Au",
                        "occu": 1
                    }
                ],
                "abc": [
                    0.07083644,
                    0.67058739,
                    0.25
                ],
                "xyz": [
                    0.2837397466123648,
                    8.716280551355728,
                    1.4151626675
                ],
                "label": "Au",
                "properties": {}
            },
            {
                "species": [
                    {
                        "element": "Au",
                        "occu": 1
                    }
                ],
                "abc": [
                    0.92916356,
                    0.17058739,
                    0.25
                ],
                "xyz": [
                    3.721822173387635,
                    2.217291246355728,
                    1.4151626675
                ],
                "label": "Au",
                "properties": {}
            },
            {
                "species": [
                    {
                        "element": "Au",
                        "occu": 1
                    }
                ],
                "abc": [
                    0.92916356,
                    0.32941261,
                    0.75
                ],
                "xyz": [
                    3.721822173387635,
                    4.281698058644272,
                    4.2454880025
                ],
                "label": "Au",
                "properties": {}
            },
            {
                "species": [
                    {
                        "element": "O",
                        "occu": 1
                    }
                ],
                "abc": [
                    0.17253749,
                    0.25,
                    0.5
                ],
                "xyz": [
                    0.6911095997163808,
                    3.2494946525,
                    2.830325335
                ],
                "label": "O",
                "properties": {}
            },
            {
                "species": [
                    {
                        "element": "O",
                        "occu": 1
                    }
                ],
                "abc": [
                    0.82746251,
                    0.75,
                    0.0
                ],
                "xyz": [
                    3.3144523202836194,
                    9.7484839575,
                    0.0
                ],
                "label": "O",
                "properties": {}
            },
            {
                "species": [
                    {
                        "element": "O",
                        "occu": 1
                    }
                ],
                "abc": [
                    0.82746251,
                    0.75,
                    0.5
                ],
                "xyz": [
                    3.3144523202836194,
                    9.7484839575,
                    2.830325335
                ],
                "label": "O",
                "properties": {}
            },
            {
                "species": [
                    {
                        "element": "O",
                        "occu": 1
                    }
                ],
                "abc": [
                    0.17253749,
                    0.25,
                    0.0
                ],
                "xyz": [
                    0.6911095997163808,
                    3.2494946525,
                    0.0
                ],
                "label": "O",
                "properties": {}
            },
            {
                "species": [
                    {
                        "element": "O",
                        "occu": 1
                    }
                ],
                "abc": [
                    0.74340665,
                    0.07940972,
                    0.49463458
                ],
                "xyz": [
                    2.9777613683147677,
                    1.0321658419860893,
                    2.7999535666821687
                ],
                "label": "O",
                "properties": {}
            },
            {
                "species": [
                    {
                        "element": "O",
                        "occu": 1
                    }
                ],
                "abc": [
                    0.74340665,
                    0.42059028,
                    0.50536542
                ],
                "xyz": [
                    2.9777613683147677,
                    5.4668234630139105,
                    2.8606971033178312
                ],
                "label": "O",
                "properties": {}
            },
            {
                "species": [
                    {
                        "element": "O",
                        "occu": 1
                    }
                ],
                "abc": [
                    0.25659335,
                    0.92059028,
                    0.99463458
                ],
                "xyz": [
                    1.027800551685232,
                    11.965812768013912,
                    5.630278901682169
                ],
                "label": "O",
                "properties": {}
            },
            {
                "species": [
                    {
                        "element": "O",
                        "occu": 1
                    }
                ],
                "abc": [
                    0.25659335,
                    0.57940972,
                    0.00536542
                ],
                "xyz": [
                    1.027800551685232,
                    7.53115514698609,
                    0.0303717683178314
                ],
                "label": "O",
                "properties": {}
            },
            {
                "species": [
                    {
                        "element": "O",
                        "occu": 1
                    }
                ],
                "abc": [
                    0.74340665,
                    0.42059028,
                    0.99463458
                ],
                "xyz": [
                    2.9777613683147677,
                    5.4668234630139105,
                    5.630278901682169
                ],
                "label": "O",
                "properties": {}
            },
            {
                "species": [
                    {
                        "element": "O",
                        "occu": 1
                    }
                ],
                "abc": [
                    0.74340665,
                    0.07940972,
                    0.00536542
                ],
                "xyz": [
                    2.9777613683147677,
                    1.0321658419860893,
                    0.0303717683178314
                ],
                "label": "O",
                "properties": {}
            },
            {
                "species": [
                    {
                        "element": "O",
                        "occu": 1
                    }
                ],
                "abc": [
                    0.25659335,
                    0.57940972,
                    0.49463458
                ],
                "xyz": [
                    1.027800551685232,
                    7.53115514698609,
                    2.7999535666821687
                ],
                "label": "O",
                "properties": {}
            },
            {
                "species": [
                    {
                        "element": "O",
                        "occu": 1
                    }
                ],
                "abc": [
                    0.25659335,
                    0.92059028,
                    0.50536542
                ],
                "xyz": [
                    1.027800551685232,
                    11.965812768013912,
                    2.8606971033178312
                ],
                "label": "O",
                "properties": {}
            }
        ]
    },
    "spacegroup": {
        "source": "spglib",
        "symbol": "Pbcm",
        "number": 57,
        "point_group": "mmm",
        "crystal_system": "orthorhombic",
        "hall": "-P 2c 2b"
    },
    "dielectric": {
        "epsilon_ionic": [
            [
                8.64458892,
                1e-08,
                3e-08
            ],
            [
                1e-08,
                7.78992339,
                -0.0
            ],
            [
                3e-08,
                -0.0,
                8.25808514
            ]
        ],
        "epsilon_ionic_avg": 8.230865816666665,
        "epsilon_ionic_eig": [
            8.64458892,
            8.258085139999997,
            7.789923389999999
        ],
        "epsilon_electronic": [
            [
                4.61340721,
                0.0,
                0.0
            ],
            [
                0.0,
                5.4166673,
                0.0
            ],
            [
                0.0,
                0.0,
                6.66278582
            ]
        ],
        "epsilon_electronic_avg": 5.564286776666667,
        "epsilon_electronic_eig": [
            4.61340721,
            5.4166673,
            6.66278582
        ]
    },
    "phonon": {
        "lowest_freq": -0.02764989994234552,
        "frequency": [
            -0.02764989994234552,
            -0.025699972540096636,
            -0.02015378506811324,
            1.6826508941146268,
            1.8854833114624858,
            2.0166997330147405,
            2.0167930396805978,
            2.605969210665857,
            2.9384261367840976,
            3.1775867847613943,
            3.2528495592481037,
            3.3352352084800767,
            3.340403353955546,
            3.3573314917246813,
            3.6757607834750505,
            3.7793000881550243,
            4.007403045420118,
            4.019098486964678,
            4.321264285700872,
            4.6094644714287405,
            4.952227356592404,
            5.124333632068502,
            5.139455938308239,
            5.325492391912054,
            5.43770289660649,
            6.453601744935227,
            7.450625423896101,
            7.5506712725858565,
            7.94755201834188,
            8.164833058723556,
            8.319571345091635,
            8.636903305279422,
            9.2670673224349,
            9.551872847744301,
            9.559952128693261,
            9.601150135780436,
            9.898211389713083,
            10.146067726453541,
            10.599775622307682,
            10.83556382187392,
            10.874987455172421,
            11.428486359431142,
            12.485607869389955,
            13.179356197409984,
            13.229346327665505,
            13.262619863093516,
            14.182414668802693,
            14.32451326134802,
            17.040698111380877,
            17.56771136736568,
            17.65765633754401,
            18.090629368762666,
            18.46432912704247,
            18.52764737972079,
            18.560754711475557,
            19.342731918163235,
            19.433644845720632,
            19.620925990348113,
            19.623575658952543,
            19.970348224150275
        ]
    },
    "born_effective_charge": {
        "avg_abs_trace": 2.477806333333333,
        "tensors": [
            [
                [
                    4.45251,
                    -0.68616,
                    0.0
                ],
                [
                    0.0066,
                    4.39563,
                    -0.0
                ],
                [
                    0.00048,
                    -0.00013,
                    4.47023
                ]
            ],
            [
                [
                    4.45251,
                    0.68616,
                    0.0
                ],
                [
                    -0.00614,
                    4.3955,
                    -0.0
                ],
                [
                    0.00048,
                    0.00013,
                    4.47023
                ]
            ],
            [
                [
                    4.45265,
                    -0.68725,
                    0.0
                ],
                [
                    0.00614,
                    4.3955,
                    -0.0
                ],
                [
                    -0.00048,
                    0.00013,
                    4.47023
                ]
            ],
            [
                [
                    4.45265,
                    0.68725,
                    0.0
                ],
                [
                    -0.0066,
                    4.39563,
                    -0.0
                ],
                [
                    -0.00048,
                    -0.00013,
                    4.47023
                ]
            ],
            [
                [
                    0.64186,
                    0.85899,
                    0.0
                ],
                [
                    1.38585,
                    1.67136,
                    -0.0
                ],
                [
                    -0.00012,
                    -7e-05,
                    2.95187
                ]
            ],
            [
                [
                    0.64186,
                    -0.85899,
                    0.0
                ],
                [
                    -1.38595,
                    1.67146,
                    -0.0
                ],
                [
                    -0.00012,
                    7e-05,
                    2.95187
                ]
            ],
            [
                [
                    0.64193,
                    0.85894,
                    0.0
                ],
                [
                    1.38595,
                    1.67146,
                    -0.0
                ],
                [
                    0.00012,
                    7e-05,
                    2.95187
                ]
            ],
            [
                [
                    0.64193,
                    -0.85894,
                    0.0
                ],
                [
                    -1.38585,
                    1.67136,
                    -0.0
                ],
                [
                    0.00012,
                    -7e-05,
                    2.95187
                ]
            ],
            [
                [
                    -0.90785,
                    -0.0,
                    0.0
                ],
                [
                    -0.00016,
                    -1.81537,
                    -0.40875
                ],
                [
                    0.00016,
                    -0.60689,
                    -2.1435
                ]
            ],
            [
                [
                    -0.90814,
                    -0.0,
                    0.0
                ],
                [
                    0.00016,
                    -1.81537,
                    0.40875
                ],
                [
                    -0.00016,
                    0.60689,
                    -2.1435
                ]
            ],
            [
                [
                    -0.90814,
                    -0.0,
                    0.0
                ],
                [
                    0.00016,
                    -1.81537,
                    -0.40875
                ],
                [
                    -0.00016,
                    -0.60689,
                    -2.1435
                ]
            ],
            [
                [
                    -0.90785,
                    -0.0,
                    0.0
                ],
                [
                    -0.00016,
                    -1.81537,
                    0.40875
                ],
                [
                    0.00016,
                    0.60689,
                    -2.1435
                ]
            ],
            [
                [
                    -2.09311,
                    -0.06935,
                    0.34624
                ],
                [
                    -0.49611,
                    -2.12581,
                    0.43936
                ],
                [
                    0.73568,
                    0.49173,
                    -2.63949
                ]
            ],
            [
                [
                    -2.09311,
                    0.06935,
                    -0.34624
                ],
                [
                    0.49623,
                    -2.1258,
                    0.43942
                ],
                [
                    -0.73669,
                    0.49174,
                    -2.63911
                ]
            ],
            [
                [
                    -2.09336,
                    -0.06945,
                    -0.34702
                ],
                [
                    -0.49623,
                    -2.1258,
                    -0.43942
                ],
                [
                    -0.73568,
                    -0.49173,
                    -2.63949
                ]
            ],
            [
                [
                    -2.09336,
                    0.06945,
                    0.34702
                ],
                [
                    0.49611,
                    -2.12581,
                    -0.43936
                ],
                [
                    0.73669,
                    -0.49174,
                    -2.63911
                ]
            ],
            [
                [
                    -2.09311,
                    0.06935,
                    0.34624
                ],
                [
                    0.49623,
                    -2.1258,
                    -0.43942
                ],
                [
                    0.73568,
                    -0.49173,
                    -2.63949
                ]
            ],
            [
                [
                    -2.09311,
                    -0.06935,
                    -0.34624
                ],
                [
                    -0.49611,
                    -2.12581,
                    -0.43936
                ],
                [
                    -0.73669,
                    -0.49174,
                    -2.63911
                ]
            ],
            [
                [
                    -2.09336,
                    0.06945,
                    -0.34702
                ],
                [
                    0.49611,
                    -2.12581,
                    0.43936
                ],
                [
                    -0.73568,
                    0.49173,
                    -2.63949
                ]
            ],
            [
                [
                    -2.09336,
                    -0.06945,
                    0.34702
                ],
                [
                    -0.49623,
                    -2.1258,
                    0.43942
                ],
                [
                    0.73669,
                    0.49174,
                    -2.63911
                ]
            ]
        ]
    },
    "band_gap": 2.0858999999999996,
    "is_direct": false,
    "formula": "LaAuO3"
}