{
    "mp_id": "mp-3031",
    "nelements": 3,
    "nsites": 32,
    "elements": [
        "Ba",
        "O",
        "Si"
    ],
    "structure": {
        "@module": "pymatgen.core.structure",
        "@class": "Structure",
        "charge": null,
        "lattice": {
            "matrix": [
                [
                    13.53413022,
                    0.0,
                    0.0
                ],
                [
                    0.0,
                    7.70210681,
                    0.0
                ],
                [
                    0.0,
                    0.0,
                    4.63885208
                ]
            ],
            "a": 13.53413022,
            "b": 7.70210681,
            "c": 4.63885208,
            "alpha": 90.0,
            "beta": 90.0,
            "gamma": 90.0,
            "volume": 483.5600480298073
        },
        "sites": [
            {
                "species": [
                    {
                        "element": "Ba",
                        "occu": 1
                    }
                ],
                "abc": [
                    0.04342896,
                    0.75,
                    0.28294049
                ],
                "xyz": [
                    0.5877731999591712,
                    5.7765801075,
                    1.3125190805527192
                ],
                "label": "Ba",
                "properties": {}
            },
            {
                "species": [
                    {
                        "element": "Ba",
                        "occu": 1
                    }
                ],
                "abc": [
                    0.45657104,
                    0.25,
                    0.78294049
                ],
                "xyz": [
                    6.179291910040829,
                    1.9255267025,
                    3.6319451205527193
                ],
                "label": "Ba",
                "properties": {}
            },
            {
                "species": [
                    {
                        "element": "Ba",
                        "occu": 1
                    }
                ],
                "abc": [
                    0.95657104,
                    0.25,
                    0.71705951
                ],
                "xyz": [
                    12.946357020040828,
                    1.9255267025,
                    3.3263329994472812
                ],
                "label": "Ba",
                "properties": {}
            },
            {
                "species": [
                    {
                        "element": "Ba",
                        "occu": 1
                    }
                ],
                "abc": [
                    0.54342896,
                    0.75,
                    0.21705951
                ],
                "xyz": [
                    7.35483830995917,
                    5.7765801075,
                    1.006906959447281
                ],
                "label": "Ba",
                "properties": {}
            },
            {
                "species": [
                    {
                        "element": "Si",
                        "occu": 1
                    }
                ],
                "abc": [
                    0.68261952,
                    0.04728403,
                    0.63862257
                ],
                "xyz": [
                    9.238661474393895,
                    0.36418664946724427,
                    2.962475637179446
                ],
                "label": "Si",
                "properties": {}
            },
            {
                "species": [
                    {
                        "element": "Si",
                        "occu": 1
                    }
                ],
                "abc": [
                    0.81738048,
                    0.95271597,
                    0.13862257
                ],
                "xyz": [
                    11.062533855606105,
                    7.3379201605327555,
                    0.6430495971794457
                ],
                "label": "Si",
                "properties": {}
            },
            {
                "species": [
                    {
                        "element": "Si",
                        "occu": 1
                    }
                ],
                "abc": [
                    0.31738048,
                    0.54728403,
                    0.36137743
                ],
                "xyz": [
                    4.295468745606105,
                    4.215240054467245,
                    1.6763764428205545
                ],
                "label": "Si",
                "properties": {}
            },
            {
                "species": [
                    {
                        "element": "Si",
                        "occu": 1
                    }
                ],
                "abc": [
                    0.18261952,
                    0.45271597,
                    0.86137743
                ],
                "xyz": [
                    2.4715963643938945,
                    3.486866755532756,
                    3.9958024828205545
                ],
                "label": "Si",
                "properties": {}
            },
            {
                "species": [
                    {
                        "element": "Si",
                        "occu": 1
                    }
                ],
                "abc": [
                    0.31738048,
                    0.95271597,
                    0.36137743
                ],
                "xyz": [
                    4.295468745606105,
                    7.3379201605327555,
                    1.6763764428205545
                ],
                "label": "Si",
                "properties": {}
            },
            {
                "species": [
                    {
                        "element": "Si",
                        "occu": 1
                    }
                ],
                "abc": [
                    0.18261952,
                    0.04728403,
                    0.86137743
                ],
                "xyz": [
                    2.4715963643938945,
                    0.36418664946724427,
                    3.9958024828205545
                ],
                "label": "Si",
                "properties": {}
            },
            {
                "species": [
                    {
                        "element": "Si",
                        "occu": 1
                    }
                ],
                "abc": [
                    0.68261952,
                    0.45271597,
                    0.63862257
                ],
                "xyz": [
                    9.238661474393895,
                    3.486866755532756,
                    2.962475637179446
                ],
                "label": "Si",
                "properties": {}
            },
            {
                "species": [
                    {
                        "element": "Si",
                        "occu": 1
                    }
                ],
                "abc": [
                    0.81738048,
                    0.54728403,
                    0.13862257
                ],
                "xyz": [
                    11.062533855606105,
                    4.215240054467245,
                    0.6430495971794457
                ],
                "label": "Si",
                "properties": {}
            },
            {
                "species": [
                    {
                        "element": "O",
                        "occu": 1
                    }
                ],
                "abc": [
                    0.7818463,
                    0.05460855,
                    0.84400767
                ],
                "xyz": [
                    10.581609636225187,
                    0.4206008848392255,
                    3.915226735515454
                ],
                "label": "O",
                "properties": {}
            },
            {
                "species": [
                    {
                        "element": "O",
                        "occu": 1
                    }
                ],
                "abc": [
                    0.7181537,
                    0.94539145,
                    0.34400767
                ],
                "xyz": [
                    9.719585693774814,
                    7.281505925160775,
                    1.5958006955154538
                ],
                "label": "O",
                "properties": {}
            },
            {
                "species": [
                    {
                        "element": "O",
                        "occu": 1
                    }
                ],
                "abc": [
                    0.2181537,
                    0.55460855,
                    0.15599233
                ],
                "xyz": [
                    2.952520583774814,
                    4.271654289839225,
                    0.7236253444845465
                ],
                "label": "O",
                "properties": {}
            },
            {
                "species": [
                    {
                        "element": "O",
                        "occu": 1
                    }
                ],
                "abc": [
                    0.2818463,
                    0.44539145,
                    0.65599233
                ],
                "xyz": [
                    3.814544526225186,
                    3.4304525201607747,
                    3.0430513844845466
                ],
                "label": "O",
                "properties": {}
            },
            {
                "species": [
                    {
                        "element": "O",
                        "occu": 1
                    }
                ],
                "abc": [
                    0.2181537,
                    0.94539145,
                    0.15599233
                ],
                "xyz": [
                    2.952520583774814,
                    7.281505925160775,
                    0.7236253444845465
                ],
                "label": "O",
                "properties": {}
            },
            {
                "species": [
                    {
                        "element": "O",
                        "occu": 1
                    }
                ],
                "abc": [
                    0.2818463,
                    0.05460855,
                    0.65599233
                ],
                "xyz": [
                    3.814544526225186,
                    0.4206008848392255,
                    3.0430513844845466
                ],
                "label": "O",
                "properties": {}
            },
            {
                "species": [
                    {
                        "element": "O",
                        "occu": 1
                    }
                ],
                "abc": [
                    0.7818463,
                    0.44539145,
                    0.84400767
                ],
                "xyz": [
                    10.581609636225187,
                    3.4304525201607747,
                    3.915226735515454
                ],
                "label": "O",
                "properties": {}
            },
            {
                "species": [
                    {
                        "element": "O",
                        "occu": 1
                    }
                ],
                "abc": [
                    0.7181537,
                    0.55460855,
                    0.34400767
                ],
                "xyz": [
                    9.719585693774814,
                    4.271654289839225,
                    1.5958006955154538
                ],
                "label": "O",
                "properties": {}
            },
            {
                "species": [
                    {
                        "element": "O",
                        "occu": 1
                    }
                ],
                "abc": [
                    0.58505006,
                    0.9602579,
                    0.7628625
                ],
                "xyz": [
                    7.918143697258814,
                    7.396008910946299,
                    3.5388062948790004
                ],
                "label": "O",
                "properties": {}
            },
            {
                "species": [
                    {
                        "element": "O",
                        "occu": 1
                    }
                ],
                "abc": [
                    0.91494994,
                    0.0397421,
                    0.2628625
                ],
                "xyz": [
                    12.383051632741186,
                    0.306097899053701,
                    1.219380254879
                ],
                "label": "O",
                "properties": {}
            },
            {
                "species": [
                    {
                        "element": "O",
                        "occu": 1
                    }
                ],
                "abc": [
                    0.41494994,
                    0.4602579,
                    0.2371375
                ],
                "xyz": [
                    5.615986522741187,
                    3.544955505946299,
                    1.1000457851210002
                ],
                "label": "O",
                "properties": {}
            },
            {
                "species": [
                    {
                        "element": "O",
                        "occu": 1
                    }
                ],
                "abc": [
                    0.08505006,
                    0.5397421,
                    0.7371375
                ],
                "xyz": [
                    1.1510785872588132,
                    4.157151304053701,
                    3.419471825121
                ],
                "label": "O",
                "properties": {}
            },
            {
                "species": [
                    {
                        "element": "O",
                        "occu": 1
                    }
                ],
                "abc": [
                    0.84051111,
                    0.75,
                    0.04634829
                ],
                "xyz": [
                    11.375586814096744,
                    5.7765801075,
                    0.21500286147094322
                ],
                "label": "O",
                "properties": {}
            },
            {
                "species": [
                    {
                        "element": "O",
                        "occu": 1
                    }
                ],
                "abc": [
                    0.65948889,
                    0.25,
                    0.54634829
                ],
                "xyz": [
                    8.925608515903255,
                    1.9255267025,
                    2.5344289014709434
                ],
                "label": "O",
                "properties": {}
            },
            {
                "species": [
                    {
                        "element": "O",
                        "occu": 1
                    }
                ],
                "abc": [
                    0.15948889,
                    0.25,
                    0.95365171
                ],
                "xyz": [
                    2.1585434059032558,
                    1.9255267025,
                    4.423849218529058
                ],
                "label": "O",
                "properties": {}
            },
            {
                "species": [
                    {
                        "element": "O",
                        "occu": 1
                    }
                ],
                "abc": [
                    0.34051111,
                    0.75,
                    0.45365171
                ],
                "xyz": [
                    4.608521704096744,
                    5.7765801075,
                    2.104423178529057
                ],
                "label": "O",
                "properties": {}
            },
            {
                "species": [
                    {
                        "element": "O",
                        "occu": 1
                    }
                ],
                "abc": [
                    0.91494994,
                    0.4602579,
                    0.2628625
                ],
                "xyz": [
                    12.383051632741186,
                    3.544955505946299,
                    1.219380254879
                ],
                "label": "O",
                "properties": {}
            },
            {
                "species": [
                    {
                        "element": "O",
                        "occu": 1
                    }
                ],
                "abc": [
                    0.58505006,
                    0.5397421,
                    0.7628625
                ],
                "xyz": [
                    7.918143697258814,
                    4.157151304053701,
                    3.5388062948790004
                ],
                "label": "O",
                "properties": {}
            },
            {
                "species": [
                    {
                        "element": "O",
                        "occu": 1
                    }
                ],
                "abc": [
                    0.08505006,
                    0.9602579,
                    0.7371375
                ],
                "xyz": [
                    1.1510785872588132,
                    7.396008910946299,
                    3.419471825121
                ],
                "label": "O",
                "properties": {}
            },
            {
                "species": [
                    {
                        "element": "O",
                        "occu": 1
                    }
                ],
                "abc": [
                    0.41494994,
                    0.0397421,
                    0.2371375
                ],
                "xyz": [
                    5.615986522741187,
                    0.306097899053701,
                    1.1000457851210002
                ],
                "label": "O",
                "properties": {}
            }
        ]
    },
    "spacegroup": {
        "source": "spglib",
        "symbol": "Pnma",
        "number": 62,
        "point_group": "mmm",
        "crystal_system": "orthorhombic",
        "hall": "-P 2ac 2n"
    },
    "dielectric": {
        "epsilon_ionic": [
            [
                3.82630879,
                -0.0,
                -0.0
            ],
            [
                -0.0,
                5.5916184,
                1e-08
            ],
            [
                -0.0,
                1e-08,
                5.85296716
            ]
        ],
        "epsilon_ionic_avg": 5.090298116666667,
        "epsilon_ionic_eig": [
            5.85296716,
            5.5916184,
            3.82630879
        ],
        "epsilon_electronic": [
            [
                2.83073522,
                0.0,
                0.0
            ],
            [
                0.0,
                2.80654705,
                0.0
            ],
            [
                0.0,
                0.0,
                2.72192291
            ]
        ],
        "epsilon_electronic_avg": 2.7864017266666665,
        "epsilon_electronic_eig": [
            2.83073522,
            2.80654705,
            2.72192291
        ]
    },
    "phonon": {
        "lowest_freq": -0.05456530165522527,
        "frequency": [
            -0.05456530165522527,
            -0.021054299953366922,
            -0.018923716746446037,
            1.5691677974216958,
            1.6545476496711757,
            1.7270615410960524,
            2.089224723066059,
            2.1125862215339573,
            2.120964228629987,
            2.151678546989777,
            2.7244285739885385,
            2.762033419614973,
            2.906127999931886,
            3.0345357856629933,
            3.283027567420637,
            3.3052564186270885,
            3.521299326156033,
            3.5952273771510908,
            3.640841797154521,
            3.7195685623504295,
            3.8090917503015604,
            3.9931136176380875,
            4.113558823702327,
            4.36331276598886,
            5.006823866301479,
            5.0806233765242155,
            5.411282596578093,
            5.5616412601703065,
            5.734232371537184,
            5.775301580157255,
            5.8897652492920844,
            6.589255440492267,
            6.935927768179672,
            7.0531889040277465,
            7.266632902182768,
            7.695837429910809,
            8.397329076311005,
            8.4007457452491,
            8.888753439343164,
            9.05662908063591,
            9.191501854914003,
            9.412116554797244,
            9.460774773500555,
            9.634382880701045,
            9.74787415390743,
            10.254371230411017,
            10.792620424552078,
            10.983954502973768,
            11.065696048609038,
            11.248623933690732,
            12.329854959640533,
            12.331882634191034,
            12.763656286447496,
            12.81407861622853,
            13.018136531955934,
            13.103250188307904,
            13.216767944714721,
            13.301903034395979,
            13.560864739654612,
            13.589856351576511,
            14.006465803920587,
            14.01732323765177,
            14.706826203804761,
            15.125897145231813,
            15.453662580690601,
            15.523777817419264,
            17.373843891793676,
            17.40179769090416,
            19.839387622865832,
            20.046843139005645,
            22.066157178285216,
            22.160209279642494,
            22.177194980757253,
            22.376496674891623,
            23.217709293254156,
            23.37558873307209,
            28.447085609060228,
            28.543055800426846,
            28.84509961132545,
            28.867255520795126,
            29.064006335053413,
            29.06589838954179,
            29.45050634005176,
            29.471969220285857,
            30.230563761988183,
            30.236518407668086,
            30.261451249144802,
            30.557929869031806,
            31.604786398173893,
            31.610507727790196,
            31.6494429862068,
            31.729288156439463,
            31.87694577635653,
            31.89736681064897,
            32.26933183063592,
            34.37610637291264
        ]
    },
    "born_effective_charge": {
        "avg_abs_trace": 2.190926666666667,
        "tensors": [
            [
                [
                    2.63283,
                    -0.0,
                    0.16894
                ],
                [
                    -1e-05,
                    2.74465,
                    1e-05
                ],
                [
                    0.02577,
                    0.0,
                    2.51309
                ]
            ],
            [
                [
                    2.63278,
                    -0.0,
                    -0.16905
                ],
                [
                    1e-05,
                    2.74465,
                    1e-05
                ],
                [
                    -0.02577,
                    0.0,
                    2.51309
                ]
            ],
            [
                [
                    2.63278,
                    -0.0,
                    0.16905
                ],
                [
                    1e-05,
                    2.74465,
                    -1e-05
                ],
                [
                    0.02588,
                    0.0,
                    2.51311
                ]
            ],
            [
                [
                    2.63283,
                    -0.0,
                    -0.16894
                ],
                [
                    -1e-05,
                    2.74465,
                    -1e-05
                ],
                [
                    -0.02588,
                    0.0,
                    2.51311
                ]
            ],
            [
                [
                    3.12782,
                    -0.00421,
                    -0.12759
                ],
                [
                    -0.09493,
                    3.1058,
                    -0.04366
                ],
                [
                    0.12001,
                    0.30563,
                    2.9667
                ]
            ],
            [
                [
                    3.12784,
                    -0.00419,
                    0.1276
                ],
                [
                    -0.09491,
                    3.10577,
                    0.04368
                ],
                [
                    -0.12001,
                    -0.30563,
                    2.9667
                ]
            ],
            [
                [
                    3.12784,
                    0.00419,
                    -0.1276
                ],
                [
                    0.09493,
                    3.1058,
                    0.04366
                ],
                [
                    0.12003,
                    -0.30567,
                    2.96662
                ]
            ],
            [
                [
                    3.12782,
                    0.00421,
                    0.12759
                ],
                [
                    0.09491,
                    3.10577,
                    -0.04368
                ],
                [
                    -0.12003,
                    0.30567,
                    2.96662
                ]
            ],
            [
                [
                    3.12784,
                    -0.00419,
                    -0.1276
                ],
                [
                    -0.09491,
                    3.10577,
                    -0.04368
                ],
                [
                    0.12003,
                    0.30567,
                    2.96662
                ]
            ],
            [
                [
                    3.12782,
                    -0.00421,
                    0.12759
                ],
                [
                    -0.09493,
                    3.1058,
                    0.04366
                ],
                [
                    -0.12003,
                    -0.30567,
                    2.96662
                ]
            ],
            [
                [
                    3.12782,
                    0.00421,
                    -0.12759
                ],
                [
                    0.09491,
                    3.10577,
                    0.04368
                ],
                [
                    0.12001,
                    -0.30563,
                    2.9667
                ]
            ],
            [
                [
                    3.12784,
                    0.00419,
                    0.1276
                ],
                [
                    0.09493,
                    3.1058,
                    -0.04366
                ],
                [
                    -0.12001,
                    0.30563,
                    2.9667
                ]
            ],
            [
                [
                    -1.94047,
                    -0.02992,
                    -0.6121
                ],
                [
                    0.06384,
                    -1.28086,
                    0.44055
                ],
                [
                    -0.75859,
                    0.36661,
                    -2.08801
                ]
            ],
            [
                [
                    -1.94039,
                    -0.02987,
                    0.61216
                ],
                [
                    0.06383,
                    -1.28081,
                    -0.44054
                ],
                [
                    0.75859,
                    -0.36661,
                    -2.08801
                ]
            ],
            [
                [
                    -1.94039,
                    0.02987,
                    -0.61216
                ],
                [
                    -0.06384,
                    -1.28086,
                    -0.44055
                ],
                [
                    -0.75838,
                    -0.36683,
                    -2.08795
                ]
            ],
            [
                [
                    -1.94047,
                    0.02992,
                    0.6121
                ],
                [
                    -0.06383,
                    -1.28081,
                    0.44054
                ],
                [
                    0.75838,
                    0.36683,
                    -2.08795
                ]
            ],
            [
                [
                    -1.94039,
                    -0.02987,
                    -0.61216
                ],
                [
                    0.06383,
                    -1.28081,
                    0.44054
                ],
                [
                    -0.75838,
                    0.36683,
                    -2.08795
                ]
            ],
            [
                [
                    -1.94047,
                    -0.02992,
                    0.6121
                ],
                [
                    0.06384,
                    -1.28086,
                    -0.44055
                ],
                [
                    0.75838,
                    -0.36683,
                    -2.08795
                ]
            ],
            [
                [
                    -1.94047,
                    0.02992,
                    -0.6121
                ],
                [
                    -0.06383,
                    -1.28081,
                    -0.44054
                ],
                [
                    -0.75859,
                    -0.36661,
                    -2.08801
                ]
            ],
            [
                [
                    -1.94039,
                    0.02987,
                    0.61216
                ],
                [
                    -0.06384,
                    -1.28086,
                    0.44055
                ],
                [
                    0.75859,
                    0.36661,
                    -2.08801
                ]
            ],
            [
                [
                    -1.82607,
                    -0.09834,
                    0.26346
                ],
                [
                    -0.14188,
                    -1.72937,
                    0.19629
                ],
                [
                    0.1476,
                    0.13381,
                    -1.60796
                ]
            ],
            [
                [
                    -1.8261,
                    -0.09831,
                    -0.26347
                ],
                [
                    -0.14189,
                    -1.72935,
                    -0.19631
                ],
                [
                    -0.1476,
                    -0.13381,
                    -1.60796
                ]
            ],
            [
                [
                    -1.8261,
                    0.09831,
                    0.26347
                ],
                [
                    0.14188,
                    -1.72937,
                    -0.19629
                ],
                [
                    0.14775,
                    -0.13366,
                    -1.60805
                ]
            ],
            [
                [
                    -1.82607,
                    0.09834,
                    -0.26346
                ],
                [
                    0.14189,
                    -1.72935,
                    0.19631
                ],
                [
                    -0.14775,
                    0.13366,
                    -1.60805
                ]
            ],
            [
                [
                    -1.3554,
                    -0.0,
                    -0.04886
                ],
                [
                    0.0,
                    -2.93584,
                    -7e-05
                ],
                [
                    -0.03547,
                    0.0,
                    -1.05464
                ]
            ],
            [
                [
                    -1.35549,
                    -0.0,
                    0.04879
                ],
                [
                    -0.0,
                    -2.93584,
                    -7e-05
                ],
                [
                    0.03547,
                    0.0,
                    -1.05464
                ]
            ],
            [
                [
                    -1.35549,
                    -0.0,
                    -0.04879
                ],
                [
                    -0.0,
                    -2.93584,
                    7e-05
                ],
                [
                    -0.03555,
                    0.0,
                    -1.05428
                ]
            ],
            [
                [
                    -1.3554,
                    -0.0,
                    0.04886
                ],
                [
                    0.0,
                    -2.93584,
                    7e-05
                ],
                [
                    0.03555,
                    0.0,
                    -1.05428
                ]
            ],
            [
                [
                    -1.8261,
                    0.09831,
                    -0.26347
                ],
                [
                    0.14188,
                    -1.72937,
                    0.19629
                ],
                [
                    -0.1476,
                    0.13381,
                    -1.60796
                ]
            ],
            [
                [
                    -1.82607,
                    0.09834,
                    0.26346
                ],
                [
                    0.14189,
                    -1.72935,
                    -0.19631
                ],
                [
                    0.1476,
                    -0.13381,
                    -1.60796
                ]
            ],
            [
                [
                    -1.82607,
                    -0.09834,
                    -0.26346
                ],
                [
                    -0.14188,
                    -1.72937,
                    -0.19629
                ],
                [
                    -0.14775,
                    -0.13366,
                    -1.60805
                ]
            ],
            [
                [
                    -1.8261,
                    -0.09831,
                    0.26347
                ],
                [
                    -0.14189,
                    -1.72935,
                    0.19631
                ],
                [
                    0.14775,
                    0.13366,
                    -1.60805
                ]
            ]
        ]
    },
    "band_gap": 4.7758,
    "is_direct": false,
    "formula": "BaSi2O5"
}