{
    "mp_id": "mp-3653",
    "nelements": 3,
    "nsites": 18,
    "elements": [
        "Mg",
        "O",
        "Sb"
    ],
    "structure": {
        "@module": "pymatgen.core.structure",
        "@class": "Structure",
        "charge": null,
        "lattice": {
            "matrix": [
                [
                    4.67838025,
                    0.0,
                    0.0
                ],
                [
                    0.0,
                    4.67838025,
                    0.0
                ],
                [
                    0.0,
                    0.0,
                    9.31506155
                ]
            ],
            "a": 4.67838025,
            "b": 4.67838025,
            "c": 9.31506155,
            "alpha": 90.0,
            "beta": 90.0,
            "gamma": 90.0,
            "volume": 203.88100418757196
        },
        "sites": [
            {
                "species": [
                    {
                        "element": "Mg",
                        "occu": 1
                    }
                ],
                "abc": [
                    0.0,
                    0.0,
                    0.0
                ],
                "xyz": [
                    0.0,
                    0.0,
                    0.0
                ],
                "label": "Mg",
                "properties": {}
            },
            {
                "species": [
                    {
                        "element": "Mg",
                        "occu": 1
                    }
                ],
                "abc": [
                    0.5,
                    0.5,
                    0.5
                ],
                "xyz": [
                    2.339190125,
                    2.339190125,
                    4.657530775
                ],
                "label": "Mg",
                "properties": {}
            },
            {
                "species": [
                    {
                        "element": "Sb",
                        "occu": 1
                    }
                ],
                "abc": [
                    0.5,
                    0.5,
                    0.83253763
                ],
                "xyz": [
                    2.339190125,
                    2.339190125,
                    7.755139266141126
                ],
                "label": "Sb",
                "properties": {}
            },
            {
                "species": [
                    {
                        "element": "Sb",
                        "occu": 1
                    }
                ],
                "abc": [
                    0.0,
                    0.0,
                    0.33253763
                ],
                "xyz": [
                    0.0,
                    0.0,
                    3.097608491141126
                ],
                "label": "Sb",
                "properties": {}
            },
            {
                "species": [
                    {
                        "element": "Sb",
                        "occu": 1
                    }
                ],
                "abc": [
                    0.5,
                    0.5,
                    0.16746237
                ],
                "xyz": [
                    2.339190125,
                    2.339190125,
                    1.5599222838588733
                ],
                "label": "Sb",
                "properties": {}
            },
            {
                "species": [
                    {
                        "element": "Sb",
                        "occu": 1
                    }
                ],
                "abc": [
                    0.0,
                    0.0,
                    0.66746237
                ],
                "xyz": [
                    0.0,
                    0.0,
                    6.217453058858873
                ],
                "label": "Sb",
                "properties": {}
            },
            {
                "species": [
                    {
                        "element": "O",
                        "occu": 1
                    }
                ],
                "abc": [
                    0.69743565,
                    0.69743565,
                    0.6710086
                ],
                "xyz": [
                    3.2628691706059123,
                    3.2628691706059123,
                    6.250486409579329
                ],
                "label": "O",
                "properties": {}
            },
            {
                "species": [
                    {
                        "element": "O",
                        "occu": 1
                    }
                ],
                "abc": [
                    0.30256435,
                    0.30256435,
                    0.6710086
                ],
                "xyz": [
                    1.4155110793940875,
                    1.4155110793940875,
                    6.250486409579329
                ],
                "label": "O",
                "properties": {}
            },
            {
                "species": [
                    {
                        "element": "O",
                        "occu": 1
                    }
                ],
                "abc": [
                    0.69743565,
                    0.69743565,
                    0.3289914
                ],
                "xyz": [
                    3.2628691706059123,
                    3.2628691706059123,
                    3.06457514042067
                ],
                "label": "O",
                "properties": {}
            },
            {
                "species": [
                    {
                        "element": "O",
                        "occu": 1
                    }
                ],
                "abc": [
                    0.19743565,
                    0.80256435,
                    0.1710086
                ],
                "xyz": [
                    0.9236790456059124,
                    3.7547012043940877,
                    1.59295563457933
                ],
                "label": "O",
                "properties": {}
            },
            {
                "species": [
                    {
                        "element": "O",
                        "occu": 1
                    }
                ],
                "abc": [
                    0.80256435,
                    0.19743565,
                    0.1710086
                ],
                "xyz": [
                    3.7547012043940877,
                    0.9236790456059124,
                    1.59295563457933
                ],
                "label": "O",
                "properties": {}
            },
            {
                "species": [
                    {
                        "element": "O",
                        "occu": 1
                    }
                ],
                "abc": [
                    0.80256435,
                    0.19743565,
                    0.8289914
                ],
                "xyz": [
                    3.7547012043940877,
                    0.9236790456059124,
                    7.72210591542067
                ],
                "label": "O",
                "properties": {}
            },
            {
                "species": [
                    {
                        "element": "O",
                        "occu": 1
                    }
                ],
                "abc": [
                    0.30917262,
                    0.30917262,
                    0.0
                ],
                "xyz": [
                    1.446427079248755,
                    1.446427079248755,
                    0.0
                ],
                "label": "O",
                "properties": {}
            },
            {
                "species": [
                    {
                        "element": "O",
                        "occu": 1
                    }
                ],
                "abc": [
                    0.19082738,
                    0.80917262,
                    0.5
                ],
                "xyz": [
                    0.892763045751245,
                    3.785617204248755,
                    4.657530775
                ],
                "label": "O",
                "properties": {}
            },
            {
                "species": [
                    {
                        "element": "O",
                        "occu": 1
                    }
                ],
                "abc": [
                    0.80917262,
                    0.19082738,
                    0.5
                ],
                "xyz": [
                    3.785617204248755,
                    0.892763045751245,
                    4.657530775
                ],
                "label": "O",
                "properties": {}
            },
            {
                "species": [
                    {
                        "element": "O",
                        "occu": 1
                    }
                ],
                "abc": [
                    0.69082738,
                    0.69082738,
                    0.0
                ],
                "xyz": [
                    3.231953170751245,
                    3.231953170751245,
                    0.0
                ],
                "label": "O",
                "properties": {}
            },
            {
                "species": [
                    {
                        "element": "O",
                        "occu": 1
                    }
                ],
                "abc": [
                    0.30256435,
                    0.30256435,
                    0.3289914
                ],
                "xyz": [
                    1.4155110793940875,
                    1.4155110793940875,
                    3.06457514042067
                ],
                "label": "O",
                "properties": {}
            },
            {
                "species": [
                    {
                        "element": "O",
                        "occu": 1
                    }
                ],
                "abc": [
                    0.19743565,
                    0.80256435,
                    0.8289914
                ],
                "xyz": [
                    0.9236790456059124,
                    3.7547012043940877,
                    7.72210591542067
                ],
                "label": "O",
                "properties": {}
            }
        ]
    },
    "spacegroup": {
        "source": "spglib",
        "symbol": "P4_2/mnm",
        "number": 136,
        "point_group": "4/mmm",
        "crystal_system": "tetragonal",
        "hall": "-P 4n 2n"
    },
    "dielectric": {
        "epsilon_ionic": [
            [
                7.21215134,
                -6e-08,
                0.0
            ],
            [
                -6e-08,
                7.2121479,
                0.0
            ],
            [
                0.0,
                0.0,
                4.66661055
            ]
        ],
        "epsilon_ionic_avg": 6.363636596666666,
        "epsilon_ionic_eig": [
            7.2121513410461935,
            7.212147898953806,
            4.66661055
        ],
        "epsilon_electronic": [
            [
                4.10092209,
                0.0,
                0.0
            ],
            [
                0.0,
                4.10092209,
                0.0
            ],
            [
                0.0,
                0.0,
                4.37767648
            ]
        ],
        "epsilon_electronic_avg": 4.193173553333334,
        "epsilon_electronic_eig": [
            4.10092209,
            4.10092209,
            4.37767648
        ]
    },
    "phonon": {
        "lowest_freq": -0.046530073350857015,
        "frequency": [
            -0.046530073350857015,
            -0.046530073350857015,
            -0.014134778830661204,
            3.2733153360839653,
            3.2733153360839653,
            3.5063442076486284,
            5.2377308139886205,
            5.2377308139886205,
            5.381683730343456,
            5.444466467280459,
            6.736602523343601,
            6.736602523343601,
            7.179208853541489,
            7.2820120579000545,
            7.6756337856763635,
            7.6756337856763635,
            7.903540685889411,
            7.903540685889411,
            8.209735627619338,
            8.209735627619338,
            9.087432686648253,
            9.336891375884386,
            9.370794572634953,
            9.370794572634953,
            10.508476649151408,
            10.586089958703123,
            10.586089958703123,
            10.9230676049238,
            11.465887903331364,
            11.557177118879641,
            13.951006032262551,
            13.951006032262551,
            14.506107684566908,
            15.058914614636205,
            15.058914614636205,
            15.634250756309244,
            16.267349564688626,
            16.43362176927524,
            16.43362176927524,
            17.83663496388559,
            17.83663496388559,
            17.952010600801785,
            18.05401097457877,
            18.875651230162504,
            18.875651230162504,
            19.158295169128486,
            19.158295169128486,
            19.508712126779958,
            19.801432710318238,
            20.39221132349652,
            21.09014591259888,
            21.339371676153817,
            22.79072470296322,
            23.29556021230791
        ]
    },
    "born_effective_charge": {
        "avg_abs_trace": 2.6540044444444444,
        "tensors": [
            [
                [
                    2.12169,
                    0.2066,
                    0.0
                ],
                [
                    0.2066,
                    2.12169,
                    0.0
                ],
                [
                    0.0,
                    0.0,
                    2.30924
                ]
            ],
            [
                [
                    2.12169,
                    -0.2066,
                    0.0
                ],
                [
                    -0.2066,
                    2.12169,
                    0.0
                ],
                [
                    0.0,
                    0.0,
                    2.30924
                ]
            ],
            [
                [
                    4.77096,
                    -0.49146,
                    2e-05
                ],
                [
                    -0.49146,
                    4.77096,
                    2e-05
                ],
                [
                    0.0,
                    0.0,
                    5.09622
                ]
            ],
            [
                [
                    4.77096,
                    0.49146,
                    2e-05
                ],
                [
                    0.49146,
                    4.77096,
                    2e-05
                ],
                [
                    0.0,
                    0.0,
                    5.09622
                ]
            ],
            [
                [
                    4.77096,
                    -0.49146,
                    -2e-05
                ],
                [
                    -0.49146,
                    4.77096,
                    -2e-05
                ],
                [
                    0.0,
                    0.0,
                    5.09638
                ]
            ],
            [
                [
                    4.77096,
                    0.49146,
                    -2e-05
                ],
                [
                    0.49146,
                    4.77096,
                    -2e-05
                ],
                [
                    0.0,
                    0.0,
                    5.09638
                ]
            ],
            [
                [
                    -2.13343,
                    -0.81349,
                    0.33507
                ],
                [
                    -0.81349,
                    -2.13343,
                    0.33507
                ],
                [
                    0.23285,
                    0.23285,
                    -1.87117
                ]
            ],
            [
                [
                    -2.13339,
                    -0.81367,
                    -0.33503
                ],
                [
                    -0.81367,
                    -2.13339,
                    -0.33503
                ],
                [
                    -0.23285,
                    -0.23285,
                    -1.87117
                ]
            ],
            [
                [
                    -2.13343,
                    -0.81349,
                    -0.33507
                ],
                [
                    -0.81349,
                    -2.13343,
                    -0.33507
                ],
                [
                    -0.23283,
                    -0.23283,
                    -1.87117
                ]
            ],
            [
                [
                    -2.13343,
                    0.81349,
                    0.33507
                ],
                [
                    0.81367,
                    -2.13339,
                    -0.33503
                ],
                [
                    0.23285,
                    -0.23285,
                    -1.87117
                ]
            ],
            [
                [
                    -2.13339,
                    0.81367,
                    -0.33503
                ],
                [
                    0.81349,
                    -2.13343,
                    0.33507
                ],
                [
                    -0.23285,
                    0.23285,
                    -1.87117
                ]
            ],
            [
                [
                    -2.13339,
                    0.81367,
                    0.33503
                ],
                [
                    0.81349,
                    -2.13343,
                    -0.33507
                ],
                [
                    0.23283,
                    -0.23283,
                    -1.87117
                ]
            ],
            [
                [
                    -1.56495,
                    -0.28184,
                    0.0
                ],
                [
                    -0.28184,
                    -1.56495,
                    0.0
                ],
                [
                    7e-05,
                    7e-05,
                    -2.50858
                ]
            ],
            [
                [
                    -1.56502,
                    0.28181,
                    0.0
                ],
                [
                    0.28184,
                    -1.56495,
                    0.0
                ],
                [
                    -7e-05,
                    7e-05,
                    -2.50858
                ]
            ],
            [
                [
                    -1.56495,
                    0.28184,
                    0.0
                ],
                [
                    0.28181,
                    -1.56502,
                    0.0
                ],
                [
                    7e-05,
                    -7e-05,
                    -2.50858
                ]
            ],
            [
                [
                    -1.56502,
                    -0.28181,
                    0.0
                ],
                [
                    -0.28181,
                    -1.56502,
                    0.0
                ],
                [
                    -7e-05,
                    -7e-05,
                    -2.50858
                ]
            ],
            [
                [
                    -2.13339,
                    -0.81367,
                    0.33503
                ],
                [
                    -0.81367,
                    -2.13339,
                    0.33503
                ],
                [
                    0.23283,
                    0.23283,
                    -1.87117
                ]
            ],
            [
                [
                    -2.13343,
                    0.81349,
                    -0.33507
                ],
                [
                    0.81367,
                    -2.13339,
                    0.33503
                ],
                [
                    -0.23283,
                    0.23283,
                    -1.87117
                ]
            ]
        ]
    },
    "band_gap": 1.2203999999999997,
    "is_direct": true,
    "formula": "Mg(SbO3)2"
}