{
    "mp_id": "mp-33940",
    "nelements": 3,
    "nsites": 14,
    "elements": [
        "Mg",
        "O",
        "Pt"
    ],
    "structure": {
        "@module": "pymatgen.core.structure",
        "@class": "Structure",
        "charge": null,
        "lattice": {
            "matrix": [
                [
                    -2.95979359,
                    3.05112787,
                    4.25744488
                ],
                [
                    2.95979359,
                    -3.05112787,
                    4.25744488
                ],
                [
                    2.95979359,
                    3.05112787,
                    -4.25744488
                ]
            ],
            "a": 6.016277610012194,
            "b": 6.016277610012194,
            "c": 6.016277610012194,
            "alpha": 121.06046210377285,
            "beta": 119.05224687824337,
            "gamma": 89.91123209699886,
            "volume": 153.7909782729381
        },
        "sites": [
            {
                "species": [
                    {
                        "element": "Mg",
                        "occu": 1
                    }
                ],
                "abc": [
                    0.60627978,
                    0.85627978,
                    0.75
                ],
                "xyz": [
                    2.95979359,
                    1.525563935,
                    3.0336830504170536
                ],
                "label": "Mg",
                "properties": {}
            },
            {
                "species": [
                    {
                        "element": "Mg",
                        "occu": 1
                    }
                ],
                "abc": [
                    0.39372022,
                    0.14372022,
                    0.25
                ],
                "xyz": [
                    1.1102230246251565e-16,
                    1.525563935,
                    1.223761829582947
                ],
                "label": "Mg",
                "properties": {}
            },
            {
                "species": [
                    {
                        "element": "Mg",
                        "occu": 1
                    }
                ],
                "abc": [
                    0.0,
                    0.0,
                    0.5
                ],
                "xyz": [
                    1.479896795,
                    1.525563935,
                    -2.12872244
                ],
                "label": "Mg",
                "properties": {}
            },
            {
                "species": [
                    {
                        "element": "Mg",
                        "occu": 1
                    }
                ],
                "abc": [
                    0.0,
                    0.5,
                    0.0
                ],
                "xyz": [
                    1.479896795,
                    -1.525563935,
                    2.12872244
                ],
                "label": "Mg",
                "properties": {}
            },
            {
                "species": [
                    {
                        "element": "Pt",
                        "occu": 1
                    }
                ],
                "abc": [
                    0.5,
                    0.5,
                    0.0
                ],
                "xyz": [
                    0.0,
                    0.0,
                    4.25744488
                ],
                "label": "Pt",
                "properties": {}
            },
            {
                "species": [
                    {
                        "element": "Pt",
                        "occu": 1
                    }
                ],
                "abc": [
                    0.0,
                    0.5,
                    0.5
                ],
                "xyz": [
                    2.95979359,
                    0.0,
                    0.0
                ],
                "label": "Pt",
                "properties": {}
            },
            {
                "species": [
                    {
                        "element": "O",
                        "occu": 1
                    }
                ],
                "abc": [
                    0.24840774,
                    0.27395598,
                    0.52554824
                ],
                "xyz": [
                    1.6311318289755632,
                    1.525563935,
                    -0.013557918369258015
                ],
                "label": "O",
                "properties": {}
            },
            {
                "species": [
                    {
                        "element": "O",
                        "occu": 1
                    }
                ],
                "abc": [
                    0.24369439,
                    0.26384856,
                    0.97984583
                ],
                "xyz": [
                    2.95979359,
                    2.9281419704325646,
                    -2.0108034782652546
                ],
                "label": "O",
                "properties": {}
            },
            {
                "species": [
                    {
                        "element": "O",
                        "occu": 1
                    }
                ],
                "abc": [
                    0.24840774,
                    0.7228585,
                    0.97445176
                ],
                "xyz": [
                    4.288452391230846,
                    1.52556698612787,
                    -0.013562175814137767
                ],
                "label": "O",
                "properties": {}
            },
            {
                "species": [
                    {
                        "element": "O",
                        "occu": 1
                    }
                ],
                "abc": [
                    0.78400174,
                    0.26384856,
                    0.52015417
                ],
                "xyz": [
                    2.9301956538940743e-06,
                    3.1741107489508447,
                    2.2466371868643145
                ],
                "label": "O",
                "properties": {}
            },
            {
                "species": [
                    {
                        "element": "O",
                        "occu": 1
                    }
                ],
                "abc": [
                    0.21599826,
                    0.73615144,
                    0.47984583
                ],
                "xyz": [
                    2.9597906598043457,
                    -0.1229828789508447,
                    2.0108076931356855
                ],
                "label": "O",
                "properties": {}
            },
            {
                "species": [
                    {
                        "element": "O",
                        "occu": 1
                    }
                ],
                "abc": [
                    0.75159226,
                    0.2771415,
                    0.02554824
                ],
                "xyz": [
                    -1.3286588012308467,
                    1.5255608838721302,
                    4.271007055814138
                ],
                "label": "O",
                "properties": {}
            },
            {
                "species": [
                    {
                        "element": "O",
                        "occu": 1
                    }
                ],
                "abc": [
                    0.75630561,
                    0.73615144,
                    0.02015417
                ],
                "xyz": [
                    1.942890293094024e-16,
                    0.12298589956743568,
                    6.268248358265255
                ],
                "label": "O",
                "properties": {}
            },
            {
                "species": [
                    {
                        "element": "O",
                        "occu": 1
                    }
                ],
                "abc": [
                    0.75159226,
                    0.72604402,
                    0.47445176
                ],
                "xyz": [
                    1.3286617610244371,
                    1.5255639350000003,
                    4.271002798369258
                ],
                "label": "O",
                "properties": {}
            }
        ]
    },
    "spacegroup": {
        "source": "spglib",
        "symbol": "Imma",
        "number": 74,
        "point_group": "mmm",
        "crystal_system": "orthorhombic",
        "hall": "-I 2b 2"
    },
    "dielectric": {
        "epsilon_ionic": [
            [
                4.129397,
                -0.0,
                -0.0
            ],
            [
                -0.0,
                3.33400698,
                0.0
            ],
            [
                -0.0,
                0.0,
                3.61396393
            ]
        ],
        "epsilon_ionic_avg": 3.6924559699999997,
        "epsilon_ionic_eig": [
            4.129397,
            3.33400698,
            3.61396393
        ],
        "epsilon_electronic": [
            [
                3.62142355,
                0.0,
                0.0
            ],
            [
                0.0,
                5.22734488,
                -0.0
            ],
            [
                0.0,
                0.0,
                4.34162882
            ]
        ],
        "epsilon_electronic_avg": 4.396799083333334,
        "epsilon_electronic_eig": [
            3.62142355,
            5.22734488,
            4.34162882
        ]
    },
    "phonon": {
        "lowest_freq": -0.02643388404832805,
        "frequency": [
            -0.02643388404832805,
            -0.019589505118001605,
            -0.0193828714819504,
            4.112167838873622,
            4.769502901249332,
            5.711249498116238,
            6.315407727244409,
            6.729614109658459,
            6.904032966088451,
            7.438347499956251,
            7.534627276389021,
            7.999087679190307,
            8.406763794249974,
            8.855075067738941,
            9.04614721904214,
            9.840645908334814,
            10.143956504517712,
            10.600125669484243,
            11.713401496869487,
            12.34665545722834,
            13.130053984226517,
            13.239401085095526,
            13.78483155360988,
            14.081721261275602,
            14.189594992677481,
            14.492820456165612,
            14.671956954845902,
            14.943807137600709,
            15.183864699638496,
            15.88719768828589,
            16.05066175252723,
            16.27940318509045,
            16.412325529413927,
            16.98394806212329,
            17.246305908167614,
            18.01274816139782,
            18.062879227145505,
            18.315075778054105,
            18.78127984434917,
            19.168394619049316,
            19.276770941527214,
            19.56177369433503
        ]
    },
    "born_effective_charge": {
        "avg_abs_trace": 1.8894640476190474,
        "tensors": [
            [
                [
                    2.54394,
                    -0.0,
                    2e-05
                ],
                [
                    -0.0,
                    1.71016,
                    -3e-05
                ],
                [
                    -0.0,
                    -0.0,
                    2.29585
                ]
            ],
            [
                [
                    2.54394,
                    -0.0,
                    -2e-05
                ],
                [
                    -0.0,
                    1.71016,
                    3e-05
                ],
                [
                    -0.0,
                    -0.0,
                    2.29578
                ]
            ],
            [
                [
                    1.96246,
                    -0.0,
                    0.75567
                ],
                [
                    -0.0,
                    1.94034,
                    -0.0
                ],
                [
                    1.17184,
                    -0.0,
                    1.87984
                ]
            ],
            [
                [
                    1.96246,
                    -0.0,
                    -0.75567
                ],
                [
                    -0.0,
                    1.94034,
                    -0.0
                ],
                [
                    -1.17184,
                    -0.0,
                    1.87984
                ]
            ],
            [
                [
                    1.24479,
                    -0.0,
                    -0.0
                ],
                [
                    -0.0,
                    3.98616,
                    0.08341
                ],
                [
                    -0.0,
                    0.15996,
                    2.27587
                ]
            ],
            [
                [
                    1.24479,
                    -0.0,
                    -0.0
                ],
                [
                    -0.0,
                    3.98616,
                    -0.08341
                ],
                [
                    -0.0,
                    -0.15996,
                    2.27587
                ]
            ],
            [
                [
                    -1.62816,
                    0.0,
                    0.14058
                ],
                [
                    0.00017,
                    -2.47386,
                    1e-05
                ],
                [
                    -0.02687,
                    -0.0,
                    -0.82397
                ]
            ],
            [
                [
                    -1.24748,
                    1e-05,
                    1e-05
                ],
                [
                    -0.0,
                    -1.34447,
                    -0.10414
                ],
                [
                    -0.0,
                    0.10122,
                    -2.40184
                ]
            ],
            [
                [
                    -1.62807,
                    0.0,
                    -0.14055
                ],
                [
                    -0.00017,
                    -2.47386,
                    1e-05
                ],
                [
                    0.02687,
                    -0.0,
                    -0.82397
                ]
            ],
            [
                [
                    -1.24748,
                    -1e-05,
                    1e-05
                ],
                [
                    0.0,
                    -1.34447,
                    0.10391
                ],
                [
                    -0.0,
                    -0.10122,
                    -2.40184
                ]
            ],
            [
                [
                    -1.24748,
                    1e-05,
                    -1e-05
                ],
                [
                    0.0,
                    -1.34447,
                    0.10414
                ],
                [
                    -0.0,
                    -0.10117,
                    -2.40175
                ]
            ],
            [
                [
                    -1.62816,
                    0.0,
                    -0.14058
                ],
                [
                    0.00017,
                    -2.47386,
                    -1e-05
                ],
                [
                    0.02693,
                    0.0,
                    -0.82396
                ]
            ],
            [
                [
                    -1.24748,
                    -1e-05,
                    -1e-05
                ],
                [
                    -0.0,
                    -1.34447,
                    -0.10391
                ],
                [
                    -0.0,
                    0.10117,
                    -2.40175
                ]
            ],
            [
                [
                    -1.62807,
                    0.0,
                    0.14055
                ],
                [
                    -0.00017,
                    -2.47386,
                    -1e-05
                ],
                [
                    -0.02693,
                    0.0,
                    -0.82396
                ]
            ]
        ]
    },
    "band_gap": 1.5047000000000006,
    "is_direct": true,
    "formula": "Mg2PtO4"
}