{
    "mp_id": "mp-31415",
    "nelements": 3,
    "nsites": 22,
    "elements": [
        "La",
        "O",
        "Ta"
    ],
    "structure": {
        "@module": "pymatgen.core.structure",
        "@class": "Structure",
        "charge": null,
        "lattice": {
            "matrix": [
                [
                    5.55434498,
                    -3.76511382,
                    0.0
                ],
                [
                    5.55434498,
                    3.76511382,
                    0.0
                ],
                [
                    0.0,
                    0.0,
                    7.75459838
                ]
            ],
            "a": 6.710203442102645,
            "b": 6.710203442102645,
            "c": 7.75459838,
            "alpha": 90.0,
            "beta": 90.0,
            "gamma": 68.26419365966292,
            "volume": 324.3398156616424
        },
        "sites": [
            {
                "species": [
                    {
                        "element": "La",
                        "occu": 1
                    }
                ],
                "abc": [
                    0.0,
                    0.0,
                    0.0
                ],
                "xyz": [
                    0.0,
                    0.0,
                    0.0
                ],
                "label": "La",
                "properties": {}
            },
            {
                "species": [
                    {
                        "element": "La",
                        "occu": 1
                    }
                ],
                "abc": [
                    0.0,
                    0.0,
                    0.5
                ],
                "xyz": [
                    0.0,
                    0.0,
                    3.87729919
                ],
                "label": "La",
                "properties": {}
            },
            {
                "species": [
                    {
                        "element": "La",
                        "occu": 1
                    }
                ],
                "abc": [
                    0.93154074,
                    0.52381547,
                    0.25
                ],
                "xyz": [
                    8.083550459125325,
                    -1.5351320488402316,
                    1.938649595
                ],
                "label": "La",
                "properties": {}
            },
            {
                "species": [
                    {
                        "element": "La",
                        "occu": 1
                    }
                ],
                "abc": [
                    0.06845926,
                    0.47618453,
                    0.75
                ],
                "xyz": [
                    3.025139500874674,
                    1.5351320488402314,
                    5.815948785
                ],
                "label": "La",
                "properties": {}
            },
            {
                "species": [
                    {
                        "element": "La",
                        "occu": 1
                    }
                ],
                "abc": [
                    0.47618453,
                    0.06845926,
                    0.25
                ],
                "xyz": [
                    3.025139500874674,
                    -1.5351320488402314,
                    1.938649595
                ],
                "label": "La",
                "properties": {}
            },
            {
                "species": [
                    {
                        "element": "La",
                        "occu": 1
                    }
                ],
                "abc": [
                    0.52381547,
                    0.93154074,
                    0.75
                ],
                "xyz": [
                    8.083550459125325,
                    1.5351320488402316,
                    5.815948785
                ],
                "label": "La",
                "properties": {}
            },
            {
                "species": [
                    {
                        "element": "Ta",
                        "occu": 1
                    }
                ],
                "abc": [
                    0.5,
                    0.5,
                    0.0
                ],
                "xyz": [
                    5.55434498,
                    0.0,
                    0.0
                ],
                "label": "Ta",
                "properties": {}
            },
            {
                "species": [
                    {
                        "element": "Ta",
                        "occu": 1
                    }
                ],
                "abc": [
                    0.5,
                    0.5,
                    0.5
                ],
                "xyz": [
                    5.55434498,
                    0.0,
                    3.87729919
                ],
                "label": "Ta",
                "properties": {}
            },
            {
                "species": [
                    {
                        "element": "O",
                        "occu": 1
                    }
                ],
                "abc": [
                    0.56539738,
                    0.43460262,
                    0.25
                ],
                "xyz": [
                    5.55434498,
                    -0.49245715845958316,
                    1.938649595
                ],
                "label": "O",
                "properties": {}
            },
            {
                "species": [
                    {
                        "element": "O",
                        "occu": 1
                    }
                ],
                "abc": [
                    0.43460262,
                    0.56539738,
                    0.75
                ],
                "xyz": [
                    5.55434498,
                    0.49245715845958316,
                    5.815948785
                ],
                "label": "O",
                "properties": {}
            },
            {
                "species": [
                    {
                        "element": "O",
                        "occu": 1
                    }
                ],
                "abc": [
                    0.81314227,
                    0.43764273,
                    0.96698448
                ],
                "xyz": [
                    6.947291385809299,
                    -1.4137985074576425,
                    7.4985762820931425
                ],
                "label": "O",
                "properties": {}
            },
            {
                "species": [
                    {
                        "element": "O",
                        "occu": 1
                    }
                ],
                "abc": [
                    0.18685773,
                    0.56235727,
                    0.46698448
                ],
                "xyz": [
                    4.1613985741907005,
                    1.413798507457643,
                    3.621277092093142
                ],
                "label": "O",
                "properties": {}
            },
            {
                "species": [
                    {
                        "element": "O",
                        "occu": 1
                    }
                ],
                "abc": [
                    0.56235727,
                    0.18685773,
                    0.53301552
                ],
                "xyz": [
                    4.1613985741907005,
                    -1.413798507457643,
                    4.133321287906857
                ],
                "label": "O",
                "properties": {}
            },
            {
                "species": [
                    {
                        "element": "O",
                        "occu": 1
                    }
                ],
                "abc": [
                    0.43764273,
                    0.81314227,
                    0.03301552
                ],
                "xyz": [
                    6.947291385809299,
                    1.4137985074576425,
                    0.2560220979068576
                ],
                "label": "O",
                "properties": {}
            },
            {
                "species": [
                    {
                        "element": "O",
                        "occu": 1
                    }
                ],
                "abc": [
                    0.18685773,
                    0.56235727,
                    0.03301552
                ],
                "xyz": [
                    4.1613985741907005,
                    1.413798507457643,
                    0.2560220979068576
                ],
                "label": "O",
                "properties": {}
            },
            {
                "species": [
                    {
                        "element": "O",
                        "occu": 1
                    }
                ],
                "abc": [
                    0.81314227,
                    0.43764273,
                    0.53301552
                ],
                "xyz": [
                    6.947291385809299,
                    -1.4137985074576425,
                    4.133321287906857
                ],
                "label": "O",
                "properties": {}
            },
            {
                "species": [
                    {
                        "element": "O",
                        "occu": 1
                    }
                ],
                "abc": [
                    0.43764273,
                    0.81314227,
                    0.46698448
                ],
                "xyz": [
                    6.947291385809299,
                    1.4137985074576425,
                    3.621277092093142
                ],
                "label": "O",
                "properties": {}
            },
            {
                "species": [
                    {
                        "element": "O",
                        "occu": 1
                    }
                ],
                "abc": [
                    0.56235727,
                    0.18685773,
                    0.96698448
                ],
                "xyz": [
                    4.1613985741907005,
                    -1.413798507457643,
                    7.4985762820931425
                ],
                "label": "O",
                "properties": {}
            },
            {
                "species": [
                    {
                        "element": "O",
                        "occu": 1
                    }
                ],
                "abc": [
                    0.10593398,
                    0.15351982,
                    0.25
                ],
                "xyz": [
                    1.441095911571924,
                    0.1791661038203088,
                    1.938649595
                ],
                "label": "O",
                "properties": {}
            },
            {
                "species": [
                    {
                        "element": "O",
                        "occu": 1
                    }
                ],
                "abc": [
                    0.89406602,
                    0.84648018,
                    0.75
                ],
                "xyz": [
                    9.667594048428075,
                    -0.17916610382030873,
                    5.815948785
                ],
                "label": "O",
                "properties": {}
            },
            {
                "species": [
                    {
                        "element": "O",
                        "occu": 1
                    }
                ],
                "abc": [
                    0.84648018,
                    0.89406602,
                    0.25
                ],
                "xyz": [
                    9.667594048428075,
                    0.17916610382030873,
                    1.938649595
                ],
                "label": "O",
                "properties": {}
            },
            {
                "species": [
                    {
                        "element": "O",
                        "occu": 1
                    }
                ],
                "abc": [
                    0.15351982,
                    0.10593398,
                    0.75
                ],
                "xyz": [
                    1.441095911571924,
                    -0.1791661038203088,
                    5.815948785
                ],
                "label": "O",
                "properties": {}
            }
        ]
    },
    "spacegroup": {
        "source": "spglib",
        "symbol": "Cmcm",
        "number": 63,
        "point_group": "mmm",
        "crystal_system": "orthorhombic",
        "hall": "-C 2c 2"
    },
    "dielectric": {
        "epsilon_ionic": [
            [
                20.60410722,
                1e-08,
                1e-08
            ],
            [
                1e-08,
                161.76095537,
                0.0
            ],
            [
                1e-08,
                0.0,
                37.8006364
            ]
        ],
        "epsilon_ionic_avg": 73.38856633000002,
        "epsilon_ionic_eig": [
            20.60410722,
            37.8006364,
            161.76095537000006
        ],
        "epsilon_electronic": [
            [
                4.84460505,
                0.0,
                0.0
            ],
            [
                0.0,
                4.74400569,
                0.0
            ],
            [
                0.0,
                -0.0,
                4.79727603
            ]
        ],
        "epsilon_electronic_avg": 4.795295589999999,
        "epsilon_electronic_eig": [
            4.84460505,
            4.74400569,
            4.79727603
        ]
    },
    "phonon": {
        "lowest_freq": -0.08033903018678791,
        "frequency": [
            -0.08033903018678791,
            -0.058038246367862194,
            -0.048877003248839014,
            0.6110403829661124,
            0.9237901389531915,
            2.4068806184095193,
            2.409796491703775,
            2.4289301381663764,
            2.9093538353861237,
            3.0696584662528807,
            3.309582192202296,
            3.371412217785682,
            3.4606849960913526,
            3.573097347696048,
            3.68407698011942,
            3.724712744480864,
            3.7747093120822544,
            3.858489664038295,
            4.532508117045967,
            4.634670086297294,
            5.025863383507697,
            5.279587965299142,
            5.367365891336633,
            5.4687379935939004,
            5.5656924656568565,
            6.479074402086905,
            6.583950391161631,
            6.6164857502019565,
            6.8101129050120575,
            6.961965620742302,
            7.553046855775981,
            7.87247481990043,
            8.083317102464811,
            8.271955444394386,
            8.45958919888085,
            8.818733367162475,
            9.021671452717806,
            9.112998295565255,
            9.305431335928889,
            9.434937887679888,
            9.516088599721984,
            9.694382633317675,
            9.862883490036843,
            10.296469707812962,
            10.520277899846963,
            10.794183843283701,
            10.838229256616051,
            11.768056765795672,
            11.805225296035088,
            12.132678427916373,
            12.673693023519109,
            13.232541386671762,
            13.24611534601956,
            13.258941452184727,
            13.273876297538274,
            14.139500286173265,
            14.167047962804773,
            14.954577885496219,
            15.930664966987013,
            16.029133452768622,
            16.12659449207734,
            17.687348961083924,
            18.25815703176128,
            18.820763984337283,
            20.729036784524663,
            24.799870531654822
        ]
    },
    "born_effective_charge": {
        "avg_abs_trace": 3.5357916666666664,
        "tensors": [
            [
                [
                    3.76471,
                    0.0,
                    -0.0
                ],
                [
                    0.0,
                    3.94522,
                    0.11322
                ],
                [
                    -0.0,
                    0.23566,
                    4.72737
                ]
            ],
            [
                [
                    3.76471,
                    0.0,
                    -0.0
                ],
                [
                    0.0,
                    3.94522,
                    -0.11322
                ],
                [
                    -0.0,
                    -0.23566,
                    4.72737
                ]
            ],
            [
                [
                    4.69016,
                    0.38525,
                    -0.0
                ],
                [
                    0.2434,
                    4.02894,
                    -0.0
                ],
                [
                    0.00016,
                    -8e-05,
                    4.06183
                ]
            ],
            [
                [
                    4.69024,
                    0.38527,
                    -0.0
                ],
                [
                    0.2434,
                    4.02892,
                    -0.0
                ],
                [
                    -0.00016,
                    8e-05,
                    4.06183
                ]
            ],
            [
                [
                    4.69024,
                    -0.38527,
                    -0.0
                ],
                [
                    -0.2434,
                    4.02894,
                    -0.0
                ],
                [
                    -0.00016,
                    -8e-05,
                    4.06183
                ]
            ],
            [
                [
                    4.69016,
                    -0.38525,
                    -0.0
                ],
                [
                    -0.2434,
                    4.02892,
                    -0.0
                ],
                [
                    0.00016,
                    8e-05,
                    4.06183
                ]
            ],
            [
                [
                    6.42002,
                    0.0,
                    -0.0
                ],
                [
                    0.0,
                    6.94488,
                    -0.06061
                ],
                [
                    -0.0,
                    -0.89423,
                    6.97642
                ]
            ],
            [
                [
                    6.42002,
                    0.0,
                    -0.0
                ],
                [
                    0.0,
                    6.94488,
                    0.06061
                ],
                [
                    -0.0,
                    0.89423,
                    6.97642
                ]
            ],
            [
                [
                    -1.89986,
                    -2e-05,
                    -0.0
                ],
                [
                    0.0,
                    -1.5327,
                    -0.0
                ],
                [
                    -0.0,
                    6e-05,
                    -5.20116
                ]
            ],
            [
                [
                    -1.89986,
                    2e-05,
                    -0.0
                ],
                [
                    0.0,
                    -1.53259,
                    -0.0
                ],
                [
                    -0.0,
                    -6e-05,
                    -5.20116
                ]
            ],
            [
                [
                    -2.97728,
                    1.07038,
                    0.22381
                ],
                [
                    1.07067,
                    -2.86054,
                    -0.16866
                ],
                [
                    0.32344,
                    -0.17842,
                    -2.36531
                ]
            ],
            [
                [
                    -2.97737,
                    1.07038,
                    -0.2236
                ],
                [
                    1.07043,
                    -2.86069,
                    0.16876
                ],
                [
                    -0.32344,
                    0.17842,
                    -2.36531
                ]
            ],
            [
                [
                    -2.97737,
                    -1.07038,
                    0.2236
                ],
                [
                    -1.07067,
                    -2.86054,
                    0.16866
                ],
                [
                    0.32308,
                    0.17811,
                    -2.36532
                ]
            ],
            [
                [
                    -2.97728,
                    -1.07038,
                    -0.22381
                ],
                [
                    -1.07043,
                    -2.86069,
                    -0.16876
                ],
                [
                    -0.32308,
                    -0.17811,
                    -2.36532
                ]
            ],
            [
                [
                    -2.97737,
                    1.07038,
                    0.2236
                ],
                [
                    1.07043,
                    -2.86069,
                    -0.16876
                ],
                [
                    0.32308,
                    -0.17811,
                    -2.36532
                ]
            ],
            [
                [
                    -2.97728,
                    1.07038,
                    -0.22381
                ],
                [
                    1.07067,
                    -2.86054,
                    0.16866
                ],
                [
                    -0.32308,
                    0.17811,
                    -2.36532
                ]
            ],
            [
                [
                    -2.97728,
                    -1.07038,
                    0.22381
                ],
                [
                    -1.07043,
                    -2.86069,
                    0.16876
                ],
                [
                    0.32344,
                    0.17842,
                    -2.36531
                ]
            ],
            [
                [
                    -2.97737,
                    -1.07038,
                    -0.2236
                ],
                [
                    -1.07067,
                    -2.86054,
                    -0.16866
                ],
                [
                    -0.32344,
                    -0.17842,
                    -2.36531
                ]
            ],
            [
                [
                    -2.87799,
                    -0.04222,
                    -0.0
                ],
                [
                    0.07172,
                    -2.98646,
                    -0.0
                ],
                [
                    -0.00022,
                    -1e-05,
                    -2.58253
                ]
            ],
            [
                [
                    -2.87799,
                    -0.0421,
                    -0.0
                ],
                [
                    0.07176,
                    -2.9864,
                    -0.0
                ],
                [
                    0.00022,
                    1e-05,
                    -2.58253
                ]
            ],
            [
                [
                    -2.87799,
                    0.0421,
                    -0.0
                ],
                [
                    -0.07172,
                    -2.98646,
                    -0.0
                ],
                [
                    0.00022,
                    -1e-05,
                    -2.58253
                ]
            ],
            [
                [
                    -2.87799,
                    0.04222,
                    -0.0
                ],
                [
                    -0.07176,
                    -2.9864,
                    -0.0
                ],
                [
                    -0.00022,
                    1e-05,
                    -2.58253
                ]
            ]
        ]
    },
    "band_gap": 3.6349,
    "is_direct": false,
    "formula": "La3TaO7"
}