{
    "mp_id": "mp-3520",
    "nelements": 3,
    "nsites": 32,
    "elements": [
        "O",
        "Si",
        "Y"
    ],
    "structure": {
        "@module": "pymatgen.core.structure",
        "@class": "Structure",
        "charge": null,
        "lattice": {
            "matrix": [
                [
                    7.20738528,
                    -3.35390549,
                    4.994e-05
                ],
                [
                    7.20738528,
                    3.35390549,
                    4.994e-05
                ],
                [
                    -5.5225524,
                    0.0,
                    8.76603804
                ]
            ],
            "a": 7.949533609760187,
            "b": 7.949533609760187,
            "c": 10.360598820988717,
            "alpha": 118.89893202766005,
            "beta": 118.89893202766005,
            "gamma": 49.909157770473065,
            "volume": 423.8027800474198
        },
        "sites": [
            {
                "species": [
                    {
                        "element": "Y",
                        "occu": 1
                    }
                ],
                "abc": [
                    0.70809505,
                    0.21990157,
                    0.03577894
                ],
                "xyz": [
                    6.490838107911297,
                    -1.6373547927542047,
                    0.3136858932220804
                ],
                "label": "Y",
                "properties": {}
            },
            {
                "species": [
                    {
                        "element": "Y",
                        "occu": 1
                    }
                ],
                "abc": [
                    0.78009843,
                    0.29190495,
                    0.46422106
                ],
                "xyz": [
                    5.162656252088702,
                    -1.6373547927542051,
                    4.0694330067779205
                ],
                "label": "Y",
                "properties": {}
            },
            {
                "species": [
                    {
                        "element": "Y",
                        "occu": 1
                    }
                ],
                "abc": [
                    0.29190495,
                    0.78009843,
                    0.96422106
                ],
                "xyz": [
                    2.401380052088702,
                    1.6373547927542051,
                    8.45245202677792
                ],
                "label": "Y",
                "properties": {}
            },
            {
                "species": [
                    {
                        "element": "Y",
                        "occu": 1
                    }
                ],
                "abc": [
                    0.21990157,
                    0.70809505,
                    0.53577894
                ],
                "xyz": [
                    3.7295619079112963,
                    1.6373547927542047,
                    4.696704913222081
                ],
                "label": "Y",
                "properties": {}
            },
            {
                "species": [
                    {
                        "element": "Y",
                        "occu": 1
                    }
                ],
                "abc": [
                    0.51579306,
                    0.76565996,
                    0.33479546
                ],
                "xyz": [
                    7.387000162227442,
                    0.8380299676792808,
                    2.934893733743117
                ],
                "label": "Y",
                "properties": {}
            },
            {
                "species": [
                    {
                        "element": "Y",
                        "occu": 1
                    }
                ],
                "abc": [
                    0.23434004,
                    0.48420694,
                    0.16520454
                ],
                "xyz": [
                    4.266494197772558,
                    0.8380299676792808,
                    1.4482251662568828
                ],
                "label": "Y",
                "properties": {}
            },
            {
                "species": [
                    {
                        "element": "Y",
                        "occu": 1
                    }
                ],
                "abc": [
                    0.48420694,
                    0.23434004,
                    0.66520454
                ],
                "xyz": [
                    1.505217997772558,
                    -0.8380299676792808,
                    5.831244186256883
                ],
                "label": "Y",
                "properties": {}
            },
            {
                "species": [
                    {
                        "element": "Y",
                        "occu": 1
                    }
                ],
                "abc": [
                    0.76565996,
                    0.51579306,
                    0.83479546
                ],
                "xyz": [
                    4.6257239622274415,
                    -0.8380299676792808,
                    7.3179127537431174
                ],
                "label": "Y",
                "properties": {}
            },
            {
                "species": [
                    {
                        "element": "Si",
                        "occu": 1
                    }
                ],
                "abc": [
                    0.09112737,
                    0.27274546,
                    0.3079326
                ],
                "xyz": [
                    0.9219977595657021,
                    0.6091299091343141,
                    2.6993670571652344
                ],
                "label": "Si",
                "properties": {}
            },
            {
                "species": [
                    {
                        "element": "Si",
                        "occu": 1
                    }
                ],
                "abc": [
                    0.72725454,
                    0.90887263,
                    0.1920674
                ],
                "xyz": [
                    10.731496600434296,
                    0.6091299091343139,
                    1.6837518428347658
                ],
                "label": "Si",
                "properties": {}
            },
            {
                "species": [
                    {
                        "element": "Si",
                        "occu": 1
                    }
                ],
                "abc": [
                    0.90887263,
                    0.72725454,
                    0.6920674
                ],
                "xyz": [
                    7.970220400434297,
                    -0.6091299091343139,
                    6.066770862834766
                ],
                "label": "Si",
                "properties": {}
            },
            {
                "species": [
                    {
                        "element": "Si",
                        "occu": 1
                    }
                ],
                "abc": [
                    0.27274546,
                    0.09112737,
                    0.8079326
                ],
                "xyz": [
                    -1.8392784404342986,
                    -0.6091299091343141,
                    7.082386077165234
                ],
                "label": "Si",
                "properties": {}
            },
            {
                "species": [
                    {
                        "element": "O",
                        "occu": 1
                    }
                ],
                "abc": [
                    0.38650298,
                    0.5778205,
                    0.1023242
                ],
                "xyz": [
                    6.385160098622293,
                    0.6416608806611845,
                    0.8970259879271592
                ],
                "label": "O",
                "properties": {}
            },
            {
                "species": [
                    {
                        "element": "O",
                        "occu": 1
                    }
                ],
                "abc": [
                    0.4221795,
                    0.61349702,
                    0.3976758
                ],
                "xyz": [
                    5.268334261377704,
                    0.6416608806611845,
                    3.486092912072841
                ],
                "label": "O",
                "properties": {}
            },
            {
                "species": [
                    {
                        "element": "O",
                        "occu": 1
                    }
                ],
                "abc": [
                    0.61349702,
                    0.4221795,
                    0.8976758
                ],
                "xyz": [
                    2.5070580613777036,
                    -0.6416608806611845,
                    7.869111932072841
                ],
                "label": "O",
                "properties": {}
            },
            {
                "species": [
                    {
                        "element": "O",
                        "occu": 1
                    }
                ],
                "abc": [
                    0.5778205,
                    0.38650298,
                    0.6023242
                ],
                "xyz": [
                    3.623883898622293,
                    -0.6416608806611845,
                    5.280045007927159
                ],
                "label": "O",
                "properties": {}
            },
            {
                "species": [
                    {
                        "element": "O",
                        "occu": 1
                    }
                ],
                "abc": [
                    0.26967112,
                    0.13233825,
                    0.43952897
                ],
                "xyz": [
                    0.470114647617045,
                    -0.4606014666504563,
                    3.852947747049957
                ],
                "label": "O",
                "properties": {}
            },
            {
                "species": [
                    {
                        "element": "O",
                        "occu": 1
                    }
                ],
                "abc": [
                    0.86766175,
                    0.73032888,
                    0.06047103
                ],
                "xyz": [
                    11.183379712382953,
                    -0.46060146665045654,
                    0.5301711529500434
                ],
                "label": "O",
                "properties": {}
            },
            {
                "species": [
                    {
                        "element": "O",
                        "occu": 1
                    }
                ],
                "abc": [
                    0.73032888,
                    0.86766175,
                    0.56047103
                ],
                "xyz": [
                    8.422103512382954,
                    0.46060146665045654,
                    4.913190172950044
                ],
                "label": "O",
                "properties": {}
            },
            {
                "species": [
                    {
                        "element": "O",
                        "occu": 1
                    }
                ],
                "abc": [
                    0.13233825,
                    0.26967112,
                    0.93952897
                ],
                "xyz": [
                    -2.291161552382955,
                    0.4606014666504563,
                    8.235966767049955
                ],
                "label": "O",
                "properties": {}
            },
            {
                "species": [
                    {
                        "element": "O",
                        "occu": 1
                    }
                ],
                "abc": [
                    0.15023711,
                    0.44520769,
                    0.32546566
                ],
                "xyz": [
                    2.4941989248219594,
                    0.9893034476504842,
                    2.8530740927870184
                ],
                "label": "O",
                "properties": {}
            },
            {
                "species": [
                    {
                        "element": "O",
                        "occu": 1
                    }
                ],
                "abc": [
                    0.55479231,
                    0.84976289,
                    0.17453434
                ],
                "xyz": [
                    9.15929543517804,
                    0.9893034476504845,
                    1.5300448072129818
                ],
                "label": "O",
                "properties": {}
            },
            {
                "species": [
                    {
                        "element": "O",
                        "occu": 1
                    }
                ],
                "abc": [
                    0.84976289,
                    0.55479231,
                    0.67453434
                ],
                "xyz": [
                    6.3980192351780385,
                    -0.9893034476504845,
                    5.913063827212982
                ],
                "label": "O",
                "properties": {}
            },
            {
                "species": [
                    {
                        "element": "O",
                        "occu": 1
                    }
                ],
                "abc": [
                    0.44520769,
                    0.15023711,
                    0.82546566
                ],
                "xyz": [
                    -0.2670772751780408,
                    -0.9893034476504842,
                    7.236093112787018
                ],
                "label": "O",
                "properties": {}
            },
            {
                "species": [
                    {
                        "element": "O",
                        "occu": 1
                    }
                ],
                "abc": [
                    0.40718092,
                    0.82955121,
                    0.81989511
                ],
                "xyz": [
                    4.385691241586282,
                    1.4165900344438918,
                    7.187293485472557
                ],
                "label": "O",
                "properties": {}
            },
            {
                "species": [
                    {
                        "element": "O",
                        "occu": 1
                    }
                ],
                "abc": [
                    0.17044879,
                    0.59281908,
                    0.68010489
                ],
                "xyz": [
                    1.7452507184137174,
                    1.4165900344438922,
                    5.9618634545274425
                ],
                "label": "O",
                "properties": {}
            },
            {
                "species": [
                    {
                        "element": "O",
                        "occu": 1
                    }
                ],
                "abc": [
                    0.59281908,
                    0.17044879,
                    0.18010489
                ],
                "xyz": [
                    4.5065269184137176,
                    -1.4165900344438922,
                    1.5788444345274433
                ],
                "label": "O",
                "properties": {}
            },
            {
                "species": [
                    {
                        "element": "O",
                        "occu": 1
                    }
                ],
                "abc": [
                    0.82955121,
                    0.40718092,
                    0.31989511
                ],
                "xyz": [
                    7.146967441586282,
                    -1.4165900344438918,
                    2.8042744654725564
                ],
                "label": "O",
                "properties": {}
            },
            {
                "species": [
                    {
                        "element": "O",
                        "occu": 1
                    }
                ],
                "abc": [
                    0.08983842,
                    0.08820793,
                    0.64046232
                ],
                "xyz": [
                    -2.2537380802778406,
                    -0.005468509362390073,
                    5.614325951941372
                ],
                "label": "O",
                "properties": {}
            },
            {
                "species": [
                    {
                        "element": "O",
                        "occu": 1
                    }
                ],
                "abc": [
                    0.91179207,
                    0.91016158,
                    0.85953768
                ],
                "xyz": [
                    8.38468004027784,
                    -0.005468509362390073,
                    7.534830988058628
                ],
                "label": "O",
                "properties": {}
            },
            {
                "species": [
                    {
                        "element": "O",
                        "occu": 1
                    }
                ],
                "abc": [
                    0.91016158,
                    0.91179207,
                    0.35953768
                ],
                "xyz": [
                    11.14595624027784,
                    0.005468509362390073,
                    3.1518119680586283
                ],
                "label": "O",
                "properties": {}
            },
            {
                "species": [
                    {
                        "element": "O",
                        "occu": 1
                    }
                ],
                "abc": [
                    0.08820793,
                    0.08983842,
                    0.14046232
                ],
                "xyz": [
                    0.5075381197221598,
                    0.005468509362390073,
                    1.2313069319413716
                ],
                "label": "O",
                "properties": {}
            }
        ]
    },
    "spacegroup": {
        "source": "spglib",
        "symbol": "C2/c",
        "number": 15,
        "point_group": "2/m",
        "crystal_system": "monoclinic",
        "hall": "-C 2yc"
    },
    "dielectric": {
        "epsilon_ionic": [
            [
                6.8901843,
                -0.0,
                -0.32615026
            ],
            [
                -0.0,
                8.01177288,
                0.0
            ],
            [
                -0.32615026,
                0.0,
                8.77441319
            ]
        ],
        "epsilon_ionic_avg": 7.892123456666667,
        "epsilon_ionic_eig": [
            6.835326518919591,
            8.82927097108041,
            8.01177288
        ],
        "epsilon_electronic": [
            [
                3.52826551,
                0.0,
                -0.03434687
            ],
            [
                0.0,
                3.51924104,
                0.0
            ],
            [
                -0.03434419,
                0.0,
                3.61572832
            ]
        ],
        "epsilon_electronic_avg": 3.5544116233333334,
        "epsilon_electronic_eig": [
            3.516390699408042,
            3.6276031305919583,
            3.51924104
        ]
    },
    "phonon": {
        "lowest_freq": -0.030223610017295705,
        "frequency": [
            -0.030223610017295705,
            -0.029037882787486965,
            -0.026773354844121362,
            1.7931257347962224,
            2.5525576582828147,
            2.6615490276248357,
            3.2111337519604217,
            3.2320505956328915,
            3.2905311402762747,
            3.3981730686371883,
            3.660034608964446,
            3.9904365078263995,
            4.215771534396714,
            4.320734405094977,
            4.468596624393496,
            4.747559645018389,
            4.829035024240421,
            4.9002361155040655,
            5.3509280047429115,
            5.439520749514188,
            5.499753094013391,
            5.597053877150057,
            5.798882165359937,
            5.889551500888223,
            5.9544648004204355,
            6.125864415612422,
            6.1863295680710495,
            6.368148496498258,
            6.4860115308363575,
            6.565182773767656,
            6.601665949689357,
            6.78957079388572,
            6.842599723987686,
            7.302658545771301,
            7.392750987613619,
            7.5052053656749536,
            7.801675443802299,
            7.91407826577038,
            8.05522774042001,
            8.437673543310938,
            8.623579410377069,
            8.998746071616338,
            9.074919284475751,
            9.085774649778635,
            9.17800511073986,
            9.353868126165397,
            9.527445219094957,
            9.910652193451496,
            10.019352943784533,
            10.13372571949675,
            10.239060963777908,
            10.65309565235546,
            10.897419907464027,
            11.046280298695109,
            11.109440856111199,
            11.505854528728374,
            11.677132268800884,
            11.774629943051474,
            11.931854573505502,
            12.251716154127104,
            12.258874352828894,
            12.614280485817943,
            12.686364601855017,
            13.378694464984706,
            14.694032139009524,
            14.860047522367449,
            14.88867908548769,
            14.939705918146494,
            15.096864237618728,
            15.348856092134545,
            15.608595155635573,
            15.645001649983504,
            15.801590356919942,
            16.082193033503582,
            16.248497383639656,
            16.26151215667434,
            16.45464864284446,
            16.72498841909468,
            17.376094275943252,
            17.468410382064363,
            25.454921281136777,
            25.517051603973268,
            25.562288365761898,
            25.73137753650737,
            25.80665224031268,
            26.017599738313514,
            26.394376481707816,
            26.440877736930407,
            26.61731833685354,
            26.946992281313737,
            27.72514369907344,
            28.153065262247825,
            28.21690584368772,
            28.448537646522826,
            28.497030191978865,
            29.216748735048128
        ]
    },
    "born_effective_charge": {
        "avg_abs_trace": 2.6629500000000004,
        "tensors": [
            [
                [
                    3.35531,
                    -0.0956,
                    -0.22254
                ],
                [
                    -0.11246,
                    3.77815,
                    -0.01307
                ],
                [
                    -0.25755,
                    -0.02226,
                    3.95304
                ]
            ],
            [
                [
                    3.35528,
                    0.09561,
                    -0.22234
                ],
                [
                    0.11246,
                    3.77815,
                    0.01307
                ],
                [
                    -0.25753,
                    0.02236,
                    3.95299
                ]
            ],
            [
                [
                    3.35528,
                    -0.09561,
                    -0.22234
                ],
                [
                    -0.1125,
                    3.77714,
                    -0.01286
                ],
                [
                    -0.25753,
                    -0.02236,
                    3.95299
                ]
            ],
            [
                [
                    3.35531,
                    0.0956,
                    -0.22254
                ],
                [
                    0.1125,
                    3.77714,
                    0.01286
                ],
                [
                    -0.25755,
                    0.02226,
                    3.95304
                ]
            ],
            [
                [
                    3.82194,
                    0.43821,
                    -0.03618
                ],
                [
                    0.41399,
                    3.61277,
                    0.11822
                ],
                [
                    0.10673,
                    0.10901,
                    3.83667
                ]
            ],
            [
                [
                    3.82205,
                    -0.43834,
                    -0.0362
                ],
                [
                    -0.41399,
                    3.61277,
                    -0.11822
                ],
                [
                    0.10685,
                    -0.10906,
                    3.83666
                ]
            ],
            [
                [
                    3.82205,
                    0.43834,
                    -0.0362
                ],
                [
                    0.414,
                    3.6126,
                    0.11825
                ],
                [
                    0.10685,
                    0.10906,
                    3.83666
                ]
            ],
            [
                [
                    3.82194,
                    -0.43821,
                    -0.03618
                ],
                [
                    -0.414,
                    3.6126,
                    -0.11825
                ],
                [
                    0.10673,
                    -0.10901,
                    3.83667
                ]
            ],
            [
                [
                    3.42881,
                    -0.11477,
                    0.30475
                ],
                [
                    -0.0579,
                    3.11728,
                    -0.13168
                ],
                [
                    0.15699,
                    -0.0157,
                    3.05202
                ]
            ],
            [
                [
                    3.42883,
                    0.11477,
                    0.30473
                ],
                [
                    0.0579,
                    3.11728,
                    0.13168
                ],
                [
                    0.15698,
                    0.01571,
                    3.05201
                ]
            ],
            [
                [
                    3.42883,
                    -0.11477,
                    0.30473
                ],
                [
                    -0.05788,
                    3.11725,
                    -0.13171
                ],
                [
                    0.15698,
                    -0.01571,
                    3.05201
                ]
            ],
            [
                [
                    3.42881,
                    0.11477,
                    0.30475
                ],
                [
                    0.05788,
                    3.11725,
                    0.13171
                ],
                [
                    0.15699,
                    0.0157,
                    3.05202
                ]
            ],
            [
                [
                    -2.74269,
                    -0.17906,
                    0.44235
                ],
                [
                    -0.2583,
                    -2.02838,
                    -0.01111
                ],
                [
                    0.43382,
                    -0.09041,
                    -2.34036
                ]
            ],
            [
                [
                    -2.74273,
                    0.17905,
                    0.44241
                ],
                [
                    0.2583,
                    -2.02838,
                    0.01111
                ],
                [
                    0.4338,
                    0.09042,
                    -2.34035
                ]
            ],
            [
                [
                    -2.74273,
                    -0.17905,
                    0.44241
                ],
                [
                    -0.25838,
                    -2.02827,
                    -0.01118
                ],
                [
                    0.4338,
                    -0.09042,
                    -2.34035
                ]
            ],
            [
                [
                    -2.74269,
                    0.17906,
                    0.44235
                ],
                [
                    0.25838,
                    -2.02827,
                    0.01118
                ],
                [
                    0.43382,
                    0.09041,
                    -2.34036
                ]
            ],
            [
                [
                    -1.4881,
                    -0.20803,
                    -0.29962
                ],
                [
                    -0.18652,
                    -2.31907,
                    0.26479
                ],
                [
                    -0.23822,
                    0.26576,
                    -2.3983
                ]
            ],
            [
                [
                    -1.48806,
                    0.20801,
                    -0.29972
                ],
                [
                    0.18652,
                    -2.31907,
                    -0.26479
                ],
                [
                    -0.23826,
                    -0.26577,
                    -2.39827
                ]
            ],
            [
                [
                    -1.48806,
                    -0.20801,
                    -0.29972
                ],
                [
                    -0.18654,
                    -2.31908,
                    0.26472
                ],
                [
                    -0.23826,
                    0.26577,
                    -2.39827
                ]
            ],
            [
                [
                    -1.4881,
                    0.20803,
                    -0.29962
                ],
                [
                    0.18654,
                    -2.31908,
                    -0.26472
                ],
                [
                    -0.23822,
                    -0.26576,
                    -2.3983
                ]
            ],
            [
                [
                    -2.94018,
                    -0.27386,
                    -0.00637
                ],
                [
                    -0.30109,
                    -1.34893,
                    -0.16856
                ],
                [
                    -0.04446,
                    -0.17431,
                    -1.91468
                ]
            ],
            [
                [
                    -2.94006,
                    0.27383,
                    -0.00637
                ],
                [
                    0.30109,
                    -1.34893,
                    0.16856
                ],
                [
                    -0.04449,
                    0.17433,
                    -1.91469
                ]
            ],
            [
                [
                    -2.94006,
                    -0.27383,
                    -0.00637
                ],
                [
                    -0.30112,
                    -1.34895,
                    -0.16854
                ],
                [
                    -0.04449,
                    -0.17433,
                    -1.91469
                ]
            ],
            [
                [
                    -2.94018,
                    0.27386,
                    -0.00637
                ],
                [
                    0.30112,
                    -1.34895,
                    0.16854
                ],
                [
                    -0.04446,
                    0.17431,
                    -1.91468
                ]
            ],
            [
                [
                    -2.00968,
                    -0.42318,
                    0.18175
                ],
                [
                    -0.42133,
                    -2.49375,
                    0.10333
                ],
                [
                    0.21076,
                    0.13241,
                    -1.81887
                ]
            ],
            [
                [
                    -2.00962,
                    0.42317,
                    0.18175
                ],
                [
                    0.42133,
                    -2.49375,
                    -0.10333
                ],
                [
                    0.21074,
                    -0.13243,
                    -1.81888
                ]
            ],
            [
                [
                    -2.00962,
                    -0.42317,
                    0.18175
                ],
                [
                    -0.42135,
                    -2.49384,
                    0.10334
                ],
                [
                    0.21074,
                    0.13243,
                    -1.81888
                ]
            ],
            [
                [
                    -2.00968,
                    0.42318,
                    0.18175
                ],
                [
                    0.42135,
                    -2.49384,
                    -0.10334
                ],
                [
                    0.21076,
                    -0.13241,
                    -1.81887
                ]
            ],
            [
                [
                    -1.42554,
                    -0.26085,
                    -0.36419
                ],
                [
                    -0.26716,
                    -2.31747,
                    0.36464
                ],
                [
                    -0.36808,
                    0.27294,
                    -2.36951
                ]
            ],
            [
                [
                    -1.42556,
                    0.26084,
                    -0.36421
                ],
                [
                    0.26716,
                    -2.31747,
                    -0.36464
                ],
                [
                    -0.36807,
                    -0.27296,
                    -2.36949
                ]
            ],
            [
                [
                    -1.42556,
                    -0.26084,
                    -0.36421
                ],
                [
                    -0.26721,
                    -2.31744,
                    0.36472
                ],
                [
                    -0.36807,
                    0.27296,
                    -2.36949
                ]
            ],
            [
                [
                    -1.42554,
                    0.26085,
                    -0.36419
                ],
                [
                    0.26721,
                    -2.31744,
                    -0.36472
                ],
                [
                    -0.36808,
                    -0.27294,
                    -2.36951
                ]
            ]
        ]
    },
    "band_gap": 4.8384,
    "is_direct": true,
    "formula": "Y2SiO5"
}