{
    "mp_id": "mp-3033",
    "nelements": 3,
    "nsites": 20,
    "elements": [
        "O",
        "Rb",
        "Ta"
    ],
    "structure": {
        "@module": "pymatgen.core.structure",
        "@class": "Structure",
        "charge": null,
        "lattice": {
            "matrix": [
                [
                    4.83712101,
                    -4.290229,
                    -0.00196431
                ],
                [
                    4.83712101,
                    4.290229,
                    -0.00196431
                ],
                [
                    -0.7865313,
                    0.0,
                    8.05290233
                ]
            ],
            "a": 6.465586469635852,
            "b": 6.465586469635852,
            "c": 8.091221627319271,
            "alpha": 94.18786130087388,
            "beta": 94.18786130087388,
            "gamma": 83.14210428634621,
            "volume": 334.22014866381755
        },
        "sites": [
            {
                "species": [
                    {
                        "element": "Rb",
                        "occu": 1
                    }
                ],
                "abc": [
                    0.33923244,
                    0.33923244,
                    0.76150418
                ],
                "xyz": [
                    2.682869852944295,
                    0.0,
                    6.130986070078307
                ],
                "label": "Rb",
                "properties": {}
            },
            {
                "species": [
                    {
                        "element": "Rb",
                        "occu": 1
                    }
                ],
                "abc": [
                    0.66076756,
                    0.66076756,
                    0.23849582
                ],
                "xyz": [
                    6.204840867055705,
                    0.0,
                    1.9179876399216935
                ],
                "label": "Rb",
                "properties": {}
            },
            {
                "species": [
                    {
                        "element": "Rb",
                        "occu": 1
                    }
                ],
                "abc": [
                    0.7609342,
                    0.2390658,
                    0.5
                ],
                "xyz": [
                    4.44385536,
                    -2.2389349438636,
                    4.024486855
                ],
                "label": "Rb",
                "properties": {}
            },
            {
                "species": [
                    {
                        "element": "Rb",
                        "occu": 1
                    }
                ],
                "abc": [
                    0.2390658,
                    0.7609342,
                    0.5
                ],
                "xyz": [
                    4.44385536,
                    2.2389349438636,
                    4.024486855
                ],
                "label": "Rb",
                "properties": {}
            },
            {
                "species": [
                    {
                        "element": "Ta",
                        "occu": 1
                    }
                ],
                "abc": [
                    0.811344,
                    0.188656,
                    0.0
                ],
                "xyz": [
                    4.83712101,
                    -2.671474115552,
                    -0.00196431
                ],
                "label": "Ta",
                "properties": {}
            },
            {
                "species": [
                    {
                        "element": "Ta",
                        "occu": 1
                    }
                ],
                "abc": [
                    0.188656,
                    0.811344,
                    0.0
                ],
                "xyz": [
                    4.83712101,
                    2.671474115552,
                    -0.00196431
                ],
                "label": "Ta",
                "properties": {}
            },
            {
                "species": [
                    {
                        "element": "Ta",
                        "occu": 1
                    }
                ],
                "abc": [
                    0.26056914,
                    0.26056914,
                    0.19383835
                ],
                "xyz": [
                    2.3683489938879076,
                    0.0,
                    1.5599376232235687
                ],
                "label": "Ta",
                "properties": {}
            },
            {
                "species": [
                    {
                        "element": "Ta",
                        "occu": 1
                    }
                ],
                "abc": [
                    0.73943086,
                    0.73943086,
                    0.80616165
                ],
                "xyz": [
                    6.519361726112092,
                    0.0,
                    6.489036086776431
                ],
                "label": "Ta",
                "properties": {}
            },
            {
                "species": [
                    {
                        "element": "O",
                        "occu": 1
                    }
                ],
                "abc": [
                    0.87667368,
                    0.87667368,
                    0.05229945
                ],
                "xyz": [
                    8.440018198486248,
                    0.0,
                    0.41771824500999694
                ],
                "label": "O",
                "properties": {}
            },
            {
                "species": [
                    {
                        "element": "O",
                        "occu": 1
                    }
                ],
                "abc": [
                    0.12332632,
                    0.12332632,
                    0.94770055
                ],
                "xyz": [
                    0.4476925215137514,
                    0.0,
                    7.631255464990003
                ],
                "label": "O",
                "properties": {}
            },
            {
                "species": [
                    {
                        "element": "O",
                        "occu": 1
                    }
                ],
                "abc": [
                    0.22649062,
                    0.54609565,
                    0.10189681
                ],
                "xyz": [
                    3.65694824821938,
                    1.3711787682518701,
                    0.8190474597325437
                ],
                "label": "O",
                "properties": {}
            },
            {
                "species": [
                    {
                        "element": "O",
                        "occu": 1
                    }
                ],
                "abc": [
                    0.45390435,
                    0.77350938,
                    0.89810319
                ],
                "xyz": [
                    5.23076247178062,
                    1.3711787682518704,
                    7.229926250267456
                ],
                "label": "O",
                "properties": {}
            },
            {
                "species": [
                    {
                        "element": "O",
                        "occu": 1
                    }
                ],
                "abc": [
                    0.77350938,
                    0.45390435,
                    0.89810319
                ],
                "xyz": [
                    5.23076247178062,
                    -1.3711787682518704,
                    7.229926250267456
                ],
                "label": "O",
                "properties": {}
            },
            {
                "species": [
                    {
                        "element": "O",
                        "occu": 1
                    }
                ],
                "abc": [
                    0.54609565,
                    0.22649062,
                    0.10189681
                ],
                "xyz": [
                    3.65694824821938,
                    -1.3711787682518701,
                    0.8190474597325437
                ],
                "label": "O",
                "properties": {}
            },
            {
                "species": [
                    {
                        "element": "O",
                        "occu": 1
                    }
                ],
                "abc": [
                    0.66586548,
                    0.66586548,
                    0.58907862
                ],
                "xyz": [
                    5.978415033492663,
                    0.0,
                    4.741176659109147
                ],
                "label": "O",
                "properties": {}
            },
            {
                "species": [
                    {
                        "element": "O",
                        "occu": 1
                    }
                ],
                "abc": [
                    0.33413452,
                    0.33413452,
                    0.41092138
                ],
                "xyz": [
                    2.909295686507336,
                    0.0,
                    3.307797050890853
                ],
                "label": "O",
                "properties": {}
            },
            {
                "species": [
                    {
                        "element": "O",
                        "occu": 1
                    }
                ],
                "abc": [
                    0.71181545,
                    0.04803253,
                    0.78531955
                ],
                "xyz": [
                    3.0577982218871447,
                    -2.84778073308868,
                    6.322609057003957
                ],
                "label": "O",
                "properties": {}
            },
            {
                "species": [
                    {
                        "element": "O",
                        "occu": 1
                    }
                ],
                "abc": [
                    0.95196747,
                    0.28818455,
                    0.21468045
                ],
                "xyz": [
                    5.829912498112855,
                    -2.8477807330886797,
                    1.7263646529960424
                ],
                "label": "O",
                "properties": {}
            },
            {
                "species": [
                    {
                        "element": "O",
                        "occu": 1
                    }
                ],
                "abc": [
                    0.28818455,
                    0.95196747,
                    0.21468045
                ],
                "xyz": [
                    5.829912498112855,
                    2.8477807330886797,
                    1.7263646529960424
                ],
                "label": "O",
                "properties": {}
            },
            {
                "species": [
                    {
                        "element": "O",
                        "occu": 1
                    }
                ],
                "abc": [
                    0.04803253,
                    0.71181545,
                    0.78531955
                ],
                "xyz": [
                    3.0577982218871447,
                    2.84778073308868,
                    6.322609057003957
                ],
                "label": "O",
                "properties": {}
            }
        ]
    },
    "spacegroup": {
        "source": "spglib",
        "symbol": "C2/m",
        "number": 12,
        "point_group": "2/m",
        "crystal_system": "monoclinic",
        "hall": "-C 2y"
    },
    "dielectric": {
        "epsilon_ionic": [
            [
                12.82756543,
                -0.0,
                1.96817137
            ],
            [
                -0.0,
                10.74819565,
                -1e-08
            ],
            [
                1.96817137,
                -1e-08,
                5.58527451
            ]
        ],
        "epsilon_ionic_avg": 9.720345196666665,
        "epsilon_ionic_eig": [
            5.084964767748458,
            13.327875172251542,
            10.748195649999996
        ],
        "epsilon_electronic": [
            [
                3.77213797,
                0.0,
                0.0769517
            ],
            [
                0.0,
                3.81466247,
                0.0
            ],
            [
                0.07695307,
                0.0,
                3.27034307
            ]
        ],
        "epsilon_electronic_avg": 3.6190478366666667,
        "epsilon_electronic_eig": [
            3.7836737495522454,
            3.2588072904477547,
            3.81466247
        ]
    },
    "phonon": {
        "lowest_freq": -0.06526068844352374,
        "frequency": [
            -0.06526068844352374,
            -0.0504722889813942,
            -0.04195003863934068,
            1.4233177852761427,
            1.605890867376847,
            2.058437557042754,
            2.11087794647048,
            2.2488890240850536,
            2.5098601973386727,
            2.572721188661934,
            2.6222480652037805,
            2.9418419633380894,
            3.0040705068794336,
            3.0765807490258705,
            3.214628700347176,
            3.4477682671297636,
            3.554102802513554,
            3.9373627847451824,
            4.256511728957945,
            4.611003774784402,
            4.852752341364567,
            5.518762068013027,
            5.7677901522456825,
            5.902755748575839,
            5.919219590419651,
            6.28109044364801,
            6.300551809084238,
            6.478627670322244,
            6.808749982355834,
            6.841650449367541,
            7.672723265659645,
            7.930575704329525,
            8.197827730584445,
            8.865561043070723,
            8.966153932103618,
            9.195351662843125,
            9.195632249482724,
            9.519247231125503,
            9.828704498789401,
            10.77361408427286,
            11.046017936062881,
            11.614296968326522,
            13.174094650200683,
            13.33975487381785,
            14.522687591870229,
            15.173980749914536,
            15.770234014102556,
            15.916303999121503,
            16.546074432864167,
            16.70515502778448,
            16.799700973937938,
            16.90736761572452,
            16.94645703977244,
            17.730594907639176,
            18.33550170566452,
            20.644857281301924,
            22.541569193750053,
            23.540475247912337,
            24.475270489902222,
            25.101801009107874
        ]
    },
    "born_effective_charge": {
        "avg_abs_trace": 2.8861991666666666,
        "tensors": [
            [
                [
                    1.20081,
                    -0.0,
                    -0.09494
                ],
                [
                    3e-05,
                    1.29625,
                    -6e-05
                ],
                [
                    -0.0944,
                    0.0,
                    1.36507
                ]
            ],
            [
                [
                    1.20081,
                    -0.0,
                    -0.09498
                ],
                [
                    -3e-05,
                    1.29625,
                    6e-05
                ],
                [
                    -0.09447,
                    0.0,
                    1.36468
                ]
            ],
            [
                [
                    1.14364,
                    -2e-05,
                    -0.15536
                ],
                [
                    0.0,
                    1.14562,
                    0.0
                ],
                [
                    -0.0824,
                    -0.00022,
                    1.71415
                ]
            ],
            [
                [
                    1.14364,
                    2e-05,
                    -0.15536
                ],
                [
                    -0.0,
                    1.14561,
                    0.0
                ],
                [
                    -0.0824,
                    0.00022,
                    1.71415
                ]
            ],
            [
                [
                    6.33308,
                    -1e-05,
                    0.9911
                ],
                [
                    -0.0,
                    7.29364,
                    0.0
                ],
                [
                    0.27544,
                    -0.00015,
                    4.08623
                ]
            ],
            [
                [
                    6.33308,
                    1e-05,
                    0.9911
                ],
                [
                    -0.0,
                    7.29363,
                    0.0
                ],
                [
                    0.27544,
                    0.00015,
                    4.08623
                ]
            ],
            [
                [
                    7.10318,
                    -0.0,
                    -0.09475
                ],
                [
                    -0.00028,
                    6.30808,
                    -3e-05
                ],
                [
                    0.42154,
                    0.0,
                    4.30337
                ]
            ],
            [
                [
                    7.10319,
                    -0.0,
                    -0.09461
                ],
                [
                    0.00028,
                    6.30808,
                    3e-05
                ],
                [
                    0.42138,
                    0.0,
                    4.30352
                ]
            ],
            [
                [
                    -2.56516,
                    -0.0,
                    -0.31524
                ],
                [
                    0.00025,
                    -3.20618,
                    -0.00012
                ],
                [
                    -0.1746,
                    0.0,
                    -1.38113
                ]
            ],
            [
                [
                    -2.56526,
                    -0.0,
                    -0.31513
                ],
                [
                    -0.00025,
                    -3.20618,
                    0.00012
                ],
                [
                    -0.17469,
                    0.0,
                    -1.38113
                ]
            ],
            [
                [
                    -3.07722,
                    -1.89631,
                    1.18688
                ],
                [
                    -2.02557,
                    -3.49657,
                    1.4012
                ],
                [
                    0.73632,
                    0.82947,
                    -1.37838
                ]
            ],
            [
                [
                    -3.07719,
                    1.89629,
                    1.18688
                ],
                [
                    2.02557,
                    -3.49657,
                    -1.4012
                ],
                [
                    0.73621,
                    -0.82963,
                    -1.37848
                ]
            ],
            [
                [
                    -3.07719,
                    -1.89629,
                    1.18688
                ],
                [
                    -2.02558,
                    -3.49655,
                    1.40113
                ],
                [
                    0.73621,
                    0.82963,
                    -1.37848
                ]
            ],
            [
                [
                    -3.07722,
                    1.89631,
                    1.18688
                ],
                [
                    2.02558,
                    -3.49655,
                    -1.40113
                ],
                [
                    0.73632,
                    -0.82947,
                    -1.37838
                ]
            ],
            [
                [
                    -1.47667,
                    -0.0,
                    -0.7704
                ],
                [
                    -7e-05,
                    -1.24589,
                    -0.00018
                ],
                [
                    -0.79061,
                    0.0,
                    -3.43263
                ]
            ],
            [
                [
                    -1.47661,
                    -0.0,
                    -0.7704
                ],
                [
                    7e-05,
                    -1.24589,
                    0.00018
                ],
                [
                    -0.79052,
                    0.0,
                    -3.43271
                ]
            ],
            [
                [
                    -2.79223,
                    -1.15276,
                    -0.96712
                ],
                [
                    -1.07616,
                    -2.29924,
                    -0.21129
                ],
                [
                    -0.51353,
                    -0.05744,
                    -1.94888
                ]
            ],
            [
                [
                    -2.79222,
                    1.15275,
                    -0.96714
                ],
                [
                    1.07616,
                    -2.29924,
                    0.21129
                ],
                [
                    -0.51385,
                    0.05761,
                    -1.94915
                ]
            ],
            [
                [
                    -2.79222,
                    -1.15275,
                    -0.96714
                ],
                [
                    -1.07584,
                    -2.29915,
                    -0.21107
                ],
                [
                    -0.51385,
                    -0.05761,
                    -1.94915
                ]
            ],
            [
                [
                    -2.79223,
                    1.15276,
                    -0.96712
                ],
                [
                    1.07584,
                    -2.29915,
                    0.21107
                ],
                [
                    -0.51353,
                    0.05744,
                    -1.94888
                ]
            ]
        ]
    },
    "band_gap": 3.8474999999999997,
    "is_direct": false,
    "formula": "RbTaO3"
}