{
    "mp_id": "mp-3074",
    "nelements": 3,
    "nsites": 12,
    "elements": [
        "Ag",
        "K",
        "O"
    ],
    "structure": {
        "@module": "pymatgen.core.structure",
        "@class": "Structure",
        "charge": null,
        "lattice": {
            "matrix": [
                [
                    -4.90600489,
                    4.90600489,
                    2.73965397
                ],
                [
                    4.90600489,
                    -4.90600489,
                    2.73965397
                ],
                [
                    4.90600489,
                    4.90600489,
                    -2.73965397
                ]
            ],
            "a": 7.459455197046537,
            "b": 7.459455197046537,
            "c": 7.459455197046537,
            "alpha": 97.75221340516721,
            "beta": 97.75221340516721,
            "gamma": 136.90497335143021,
            "volume": 263.76165420481954
        },
        "sites": [
            {
                "species": [
                    {
                        "element": "K",
                        "occu": 1
                    }
                ],
                "abc": [
                    0.17986428,
                    0.5,
                    0.67986428
                ],
                "xyz": [
                    4.90600489,
                    1.7648300744326582,
                    0.0
                ],
                "label": "K",
                "properties": {}
            },
            {
                "species": [
                    {
                        "element": "K",
                        "occu": 1
                    }
                ],
                "abc": [
                    0.82013572,
                    0.5,
                    0.32013572
                ],
                "xyz": [
                    4.440892098500626e-16,
                    3.1411748155673416,
                    2.73965397
                ],
                "label": "K",
                "properties": {}
            },
            {
                "species": [
                    {
                        "element": "K",
                        "occu": 1
                    }
                ],
                "abc": [
                    0.5,
                    0.17986428,
                    0.67986428
                ],
                "xyz": [
                    1.7648300744326582,
                    4.90600489,
                    0.0
                ],
                "label": "K",
                "properties": {}
            },
            {
                "species": [
                    {
                        "element": "K",
                        "occu": 1
                    }
                ],
                "abc": [
                    0.5,
                    0.82013572,
                    0.32013572
                ],
                "xyz": [
                    3.1411748155673416,
                    4.440892098500626e-16,
                    2.73965397
                ],
                "label": "K",
                "properties": {}
            },
            {
                "species": [
                    {
                        "element": "Ag",
                        "occu": 1
                    }
                ],
                "abc": [
                    0.85426632,
                    0.14573368,
                    0.0
                ],
                "xyz": [
                    -3.47606459656461,
                    3.47606459656461,
                    2.73965397
                ],
                "label": "Ag",
                "properties": {}
            },
            {
                "species": [
                    {
                        "element": "Ag",
                        "occu": 1
                    }
                ],
                "abc": [
                    0.14573368,
                    0.14573368,
                    0.29146736
                ],
                "xyz": [
                    1.4299402934353904,
                    1.4299402934353904,
                    0.0
                ],
                "label": "Ag",
                "properties": {}
            },
            {
                "species": [
                    {
                        "element": "Ag",
                        "occu": 1
                    }
                ],
                "abc": [
                    0.14573368,
                    0.85426632,
                    0.0
                ],
                "xyz": [
                    3.47606459656461,
                    -3.47606459656461,
                    2.73965397
                ],
                "label": "Ag",
                "properties": {}
            },
            {
                "species": [
                    {
                        "element": "Ag",
                        "occu": 1
                    }
                ],
                "abc": [
                    0.85426632,
                    0.85426632,
                    0.70853264
                ],
                "xyz": [
                    3.4760645965646098,
                    3.4760645965646098,
                    2.73965397
                ],
                "label": "Ag",
                "properties": {}
            },
            {
                "species": [
                    {
                        "element": "O",
                        "occu": 1
                    }
                ],
                "abc": [
                    0.0,
                    0.29259171,
                    0.29259171
                ],
                "xyz": [
                    2.870912720066924,
                    0.0,
                    0.0
                ],
                "label": "O",
                "properties": {}
            },
            {
                "species": [
                    {
                        "element": "O",
                        "occu": 1
                    }
                ],
                "abc": [
                    0.29259171,
                    0.0,
                    0.29259171
                ],
                "xyz": [
                    0.0,
                    2.870912720066924,
                    0.0
                ],
                "label": "O",
                "properties": {}
            },
            {
                "species": [
                    {
                        "element": "O",
                        "occu": 1
                    }
                ],
                "abc": [
                    0.70740829,
                    0.0,
                    0.70740829
                ],
                "xyz": [
                    0.0,
                    6.941097059933077,
                    0.0
                ],
                "label": "O",
                "properties": {}
            },
            {
                "species": [
                    {
                        "element": "O",
                        "occu": 1
                    }
                ],
                "abc": [
                    0.0,
                    0.70740829,
                    0.70740829
                ],
                "xyz": [
                    6.941097059933077,
                    0.0,
                    0.0
                ],
                "label": "O",
                "properties": {}
            }
        ]
    },
    "spacegroup": {
        "source": "spglib",
        "symbol": "I4/mmm",
        "number": 139,
        "point_group": "4/mmm",
        "crystal_system": "tetragonal",
        "hall": "-I 4 2"
    },
    "dielectric": {
        "epsilon_ionic": [
            [
                2.48064515,
                1e-08,
                -0.0
            ],
            [
                1e-08,
                2.48064156,
                -0.0
            ],
            [
                -0.0,
                -0.0,
                2.01170318
            ]
        ],
        "epsilon_ionic_avg": 2.324329963333333,
        "epsilon_ionic_eig": [
            2.480645150027855,
            2.480641559972145,
            2.01170318
        ],
        "epsilon_electronic": [
            [
                3.84416491,
                0.0,
                0.0
            ],
            [
                0.0,
                3.84416491,
                0.0
            ],
            [
                0.0,
                0.0,
                3.03907118
            ]
        ],
        "epsilon_electronic_avg": 3.5758003333333335,
        "epsilon_electronic_eig": [
            3.84416491,
            3.84416491,
            3.03907118
        ]
    },
    "phonon": {
        "lowest_freq": -0.015530502837001123,
        "frequency": [
            -0.015530502837001123,
            -0.013069904843880039,
            -0.01306990483453031,
            1.4261687599354664,
            1.4261687599354664,
            1.8060644388366462,
            1.844902892544874,
            2.362690345021351,
            2.615381933509273,
            3.045415453300177,
            3.045415453300177,
            3.274007521365748,
            3.4542710157892715,
            3.7147467331958652,
            3.7417761477683253,
            3.7417761477683253,
            3.915848574044008,
            3.915848574044008,
            4.252243720530182,
            4.305611772125059,
            4.3267616499962935,
            4.545327225296766,
            4.545327225296766,
            4.546318028003315,
            6.276625028686395,
            6.966415395806208,
            6.966415395806208,
            7.68437670115345,
            12.83234608473497,
            12.83234608473497,
            13.44512383465477,
            13.717726604134238,
            14.389701058211106,
            14.838810753879958,
            14.838810753879958,
            14.933502691299621
        ]
    },
    "born_effective_charge": {
        "avg_abs_trace": 1.0766222222222221,
        "tensors": [
            [
                [
                    1.34544,
                    8e-05,
                    0.0
                ],
                [
                    -0.0,
                    0.97738,
                    -0.0
                ],
                [
                    0.0,
                    1e-05,
                    1.29192
                ]
            ],
            [
                [
                    1.34544,
                    -8e-05,
                    -0.0
                ],
                [
                    -0.0,
                    0.97729,
                    -0.0
                ],
                [
                    0.0,
                    -1e-05,
                    1.29192
                ]
            ],
            [
                [
                    0.97745,
                    0.0,
                    -0.0
                ],
                [
                    2e-05,
                    1.34545,
                    0.0
                ],
                [
                    1e-05,
                    0.0,
                    1.29192
                ]
            ],
            [
                [
                    0.97725,
                    -0.0,
                    0.0
                ],
                [
                    -2e-05,
                    1.34545,
                    0.0
                ],
                [
                    -1e-05,
                    0.0,
                    1.29192
                ]
            ],
            [
                [
                    0.74128,
                    0.86121,
                    0.0
                ],
                [
                    0.86108,
                    0.74147,
                    -0.0
                ],
                [
                    1e-05,
                    -1e-05,
                    -0.25262
                ]
            ],
            [
                [
                    0.74128,
                    -0.86121,
                    -0.0
                ],
                [
                    -0.86117,
                    0.74125,
                    -0.0
                ],
                [
                    1e-05,
                    1e-05,
                    -0.25262
                ]
            ],
            [
                [
                    0.74143,
                    0.86103,
                    -0.0
                ],
                [
                    0.86117,
                    0.74125,
                    -0.0
                ],
                [
                    -1e-05,
                    1e-05,
                    -0.25262
                ]
            ],
            [
                [
                    0.74143,
                    -0.86103,
                    0.0
                ],
                [
                    -0.86108,
                    0.74147,
                    -0.0
                ],
                [
                    -1e-05,
                    -1e-05,
                    -0.25262
                ]
            ],
            [
                [
                    -1.84186,
                    -0.0,
                    0.0
                ],
                [
                    -2e-05,
                    -1.96384,
                    0.0
                ],
                [
                    1e-05,
                    0.0,
                    -1.0393
                ]
            ],
            [
                [
                    -1.96384,
                    -1e-05,
                    -0.0
                ],
                [
                    -0.0,
                    -1.84169,
                    0.0
                ],
                [
                    -0.0,
                    1e-05,
                    -1.0393
                ]
            ],
            [
                [
                    -1.96384,
                    1e-05,
                    -0.0
                ],
                [
                    -0.0,
                    -1.84163,
                    -0.0
                ],
                [
                    -0.0,
                    -1e-05,
                    -1.0393
                ]
            ],
            [
                [
                    -1.84145,
                    0.0,
                    -0.0
                ],
                [
                    2e-05,
                    -1.96384,
                    0.0
                ],
                [
                    -1e-05,
                    -0.0,
                    -1.0393
                ]
            ]
        ]
    },
    "band_gap": 1.6308,
    "is_direct": false,
    "formula": "KAgO"
}