{
    "mp_id": "mp-3188",
    "nelements": 3,
    "nsites": 18,
    "elements": [
        "O",
        "Sb",
        "Zn"
    ],
    "structure": {
        "@module": "pymatgen.core.structure",
        "@class": "Structure",
        "charge": null,
        "lattice": {
            "matrix": [
                [
                    4.67093993,
                    0.0,
                    0.0
                ],
                [
                    0.0,
                    4.67093993,
                    0.0
                ],
                [
                    0.0,
                    0.0,
                    9.28647242
                ]
            ],
            "a": 4.67093993,
            "b": 4.67093993,
            "c": 9.28647242,
            "alpha": 90.0,
            "beta": 90.0,
            "gamma": 90.0,
            "volume": 202.60928200660598
        },
        "sites": [
            {
                "species": [
                    {
                        "element": "Zn",
                        "occu": 1
                    }
                ],
                "abc": [
                    0.0,
                    0.0,
                    0.0
                ],
                "xyz": [
                    0.0,
                    0.0,
                    0.0
                ],
                "label": "Zn",
                "properties": {}
            },
            {
                "species": [
                    {
                        "element": "Zn",
                        "occu": 1
                    }
                ],
                "abc": [
                    0.5,
                    0.5,
                    0.5
                ],
                "xyz": [
                    2.335469965,
                    2.335469965,
                    4.64323621
                ],
                "label": "Zn",
                "properties": {}
            },
            {
                "species": [
                    {
                        "element": "Sb",
                        "occu": 1
                    }
                ],
                "abc": [
                    0.5,
                    0.5,
                    0.832417
                ],
                "xyz": [
                    2.335469965,
                    2.335469965,
                    7.730217512439141
                ],
                "label": "Sb",
                "properties": {}
            },
            {
                "species": [
                    {
                        "element": "Sb",
                        "occu": 1
                    }
                ],
                "abc": [
                    0.0,
                    0.0,
                    0.332417
                ],
                "xyz": [
                    0.0,
                    0.0,
                    3.0869813024391406
                ],
                "label": "Sb",
                "properties": {}
            },
            {
                "species": [
                    {
                        "element": "Sb",
                        "occu": 1
                    }
                ],
                "abc": [
                    0.5,
                    0.5,
                    0.167583
                ],
                "xyz": [
                    2.335469965,
                    2.335469965,
                    1.5562549075608603
                ],
                "label": "Sb",
                "properties": {}
            },
            {
                "species": [
                    {
                        "element": "Sb",
                        "occu": 1
                    }
                ],
                "abc": [
                    0.0,
                    0.0,
                    0.667583
                ],
                "xyz": [
                    0.0,
                    0.0,
                    6.199491117560861
                ],
                "label": "Sb",
                "properties": {}
            },
            {
                "species": [
                    {
                        "element": "O",
                        "occu": 1
                    }
                ],
                "abc": [
                    0.69680595,
                    0.69680595,
                    0.67002327
                ],
                "xyz": [
                    3.2547387353165838,
                    3.2547387353165838,
                    6.222152617613213
                ],
                "label": "O",
                "properties": {}
            },
            {
                "species": [
                    {
                        "element": "O",
                        "occu": 1
                    }
                ],
                "abc": [
                    0.30319405,
                    0.30319405,
                    0.67002327
                ],
                "xyz": [
                    1.4162011946834165,
                    1.4162011946834165,
                    6.222152617613213
                ],
                "label": "O",
                "properties": {}
            },
            {
                "species": [
                    {
                        "element": "O",
                        "occu": 1
                    }
                ],
                "abc": [
                    0.69680595,
                    0.69680595,
                    0.32997673
                ],
                "xyz": [
                    3.2547387353165838,
                    3.2547387353165838,
                    3.064319802386787
                ],
                "label": "O",
                "properties": {}
            },
            {
                "species": [
                    {
                        "element": "O",
                        "occu": 1
                    }
                ],
                "abc": [
                    0.19680595,
                    0.80319405,
                    0.17002327
                ],
                "xyz": [
                    0.9192687703165836,
                    3.7516711596834167,
                    1.5789164076132136
                ],
                "label": "O",
                "properties": {}
            },
            {
                "species": [
                    {
                        "element": "O",
                        "occu": 1
                    }
                ],
                "abc": [
                    0.80319405,
                    0.19680595,
                    0.17002327
                ],
                "xyz": [
                    3.7516711596834167,
                    0.9192687703165836,
                    1.5789164076132136
                ],
                "label": "O",
                "properties": {}
            },
            {
                "species": [
                    {
                        "element": "O",
                        "occu": 1
                    }
                ],
                "abc": [
                    0.80319405,
                    0.19680595,
                    0.82997673
                ],
                "xyz": [
                    3.7516711596834167,
                    0.9192687703165836,
                    7.707556012386788
                ],
                "label": "O",
                "properties": {}
            },
            {
                "species": [
                    {
                        "element": "O",
                        "occu": 1
                    }
                ],
                "abc": [
                    0.30789887,
                    0.30789887,
                    0.0
                ],
                "xyz": [
                    1.4381771262848793,
                    1.4381771262848793,
                    0.0
                ],
                "label": "O",
                "properties": {}
            },
            {
                "species": [
                    {
                        "element": "O",
                        "occu": 1
                    }
                ],
                "abc": [
                    0.19210113,
                    0.80789887,
                    0.5
                ],
                "xyz": [
                    0.897292838715121,
                    3.7736470912848796,
                    4.64323621
                ],
                "label": "O",
                "properties": {}
            },
            {
                "species": [
                    {
                        "element": "O",
                        "occu": 1
                    }
                ],
                "abc": [
                    0.80789887,
                    0.19210113,
                    0.5
                ],
                "xyz": [
                    3.7736470912848796,
                    0.897292838715121,
                    4.64323621
                ],
                "label": "O",
                "properties": {}
            },
            {
                "species": [
                    {
                        "element": "O",
                        "occu": 1
                    }
                ],
                "abc": [
                    0.69210113,
                    0.69210113,
                    0.0
                ],
                "xyz": [
                    3.232762803715121,
                    3.232762803715121,
                    0.0
                ],
                "label": "O",
                "properties": {}
            },
            {
                "species": [
                    {
                        "element": "O",
                        "occu": 1
                    }
                ],
                "abc": [
                    0.30319405,
                    0.30319405,
                    0.32997673
                ],
                "xyz": [
                    1.4162011946834165,
                    1.4162011946834165,
                    3.064319802386787
                ],
                "label": "O",
                "properties": {}
            },
            {
                "species": [
                    {
                        "element": "O",
                        "occu": 1
                    }
                ],
                "abc": [
                    0.19680595,
                    0.80319405,
                    0.82997673
                ],
                "xyz": [
                    0.9192687703165836,
                    3.7516711596834167,
                    7.707556012386788
                ],
                "label": "O",
                "properties": {}
            }
        ]
    },
    "spacegroup": {
        "source": "spglib",
        "symbol": "P4_2/mnm",
        "number": 136,
        "point_group": "4/mmm",
        "crystal_system": "tetragonal",
        "hall": "-P 4n 2n"
    },
    "dielectric": {
        "epsilon_ionic": [
            [
                8.89803726,
                -7e-08,
                -0.0
            ],
            [
                -7e-08,
                8.89803466,
                -0.0
            ],
            [
                -0.0,
                -0.0,
                5.42480624
            ]
        ],
        "epsilon_ionic_avg": 7.74029272,
        "epsilon_ionic_eig": [
            8.898037261883252,
            8.89803465811675,
            5.42480624
        ],
        "epsilon_electronic": [
            [
                4.53511891,
                0.0,
                0.0
            ],
            [
                0.0,
                4.53511891,
                0.0
            ],
            [
                0.0,
                0.0,
                4.81618396
            ]
        ],
        "epsilon_electronic_avg": 4.628807259999999,
        "epsilon_electronic_eig": [
            4.53511891,
            4.53511891,
            4.81618396
        ]
    },
    "phonon": {
        "lowest_freq": -0.10680357699729896,
        "frequency": [
            -0.10680357699729896,
            -0.10680357699729896,
            -0.06369220164949024,
            3.1207197609030617,
            3.1207197609030617,
            3.120853293479051,
            3.120853293479051,
            3.287521780734383,
            4.555601952838684,
            4.976896349040885,
            4.976896349040885,
            5.161732788396824,
            6.485273711524887,
            6.485273711524887,
            7.052742221016723,
            7.081241463777162,
            7.233648913839919,
            7.233648913839919,
            7.30774620999513,
            7.312359137293793,
            7.665775727197534,
            7.665775727197534,
            7.997504041421406,
            7.997504041421406,
            8.868321512188064,
            8.868321512188064,
            8.986809195770368,
            9.211791443735379,
            10.598459971461466,
            11.203238697468432,
            13.186247075946453,
            13.186247075946453,
            13.695370709047005,
            14.369114615143083,
            14.369114615143083,
            15.042847529508109,
            15.363270555409471,
            16.461798563766347,
            16.461798563766347,
            17.115841307028838,
            17.115841307028838,
            17.50034707303693,
            18.042283642116345,
            18.961503747897503,
            18.961503747897503,
            19.195159178286048,
            19.195159178286048,
            19.30586409958678,
            19.691486214360385,
            20.080737810431195,
            20.446883898599054,
            20.966043611423505,
            22.825663455402427,
            23.302015910796765
        ]
    },
    "born_effective_charge": {
        "avg_abs_trace": 2.7139607407407405,
        "tensors": [
            [
                [
                    2.33082,
                    0.27399,
                    0.0
                ],
                [
                    0.27399,
                    2.33082,
                    0.0
                ],
                [
                    0.0,
                    0.0,
                    2.57912
                ]
            ],
            [
                [
                    2.33082,
                    -0.27399,
                    0.0
                ],
                [
                    -0.27399,
                    2.33082,
                    0.0
                ],
                [
                    0.0,
                    0.0,
                    2.57912
                ]
            ],
            [
                [
                    4.78234,
                    -0.60393,
                    -1e-05
                ],
                [
                    -0.60393,
                    4.78234,
                    -1e-05
                ],
                [
                    0.0,
                    0.0,
                    5.1342
                ]
            ],
            [
                [
                    4.78234,
                    0.60393,
                    -1e-05
                ],
                [
                    0.60393,
                    4.78234,
                    -1e-05
                ],
                [
                    0.0,
                    0.0,
                    5.1342
                ]
            ],
            [
                [
                    4.78234,
                    -0.60393,
                    1e-05
                ],
                [
                    -0.60393,
                    4.78234,
                    1e-05
                ],
                [
                    0.0,
                    0.0,
                    5.13416
                ]
            ],
            [
                [
                    4.78234,
                    0.60393,
                    1e-05
                ],
                [
                    0.60393,
                    4.78234,
                    1e-05
                ],
                [
                    0.0,
                    0.0,
                    5.13416
                ]
            ],
            [
                [
                    -2.14758,
                    -0.84733,
                    0.27442
                ],
                [
                    -0.84733,
                    -2.14758,
                    0.27442
                ],
                [
                    0.19201,
                    0.19201,
                    -1.96651
                ]
            ],
            [
                [
                    -2.14755,
                    -0.84759,
                    -0.27454
                ],
                [
                    -0.84759,
                    -2.14755,
                    -0.27455
                ],
                [
                    -0.19201,
                    -0.19201,
                    -1.96651
                ]
            ],
            [
                [
                    -2.14758,
                    -0.84733,
                    -0.27442
                ],
                [
                    -0.84733,
                    -2.14758,
                    -0.27442
                ],
                [
                    -0.19201,
                    -0.19201,
                    -1.96663
                ]
            ],
            [
                [
                    -2.14758,
                    0.84733,
                    0.27442
                ],
                [
                    0.84759,
                    -2.14755,
                    -0.27455
                ],
                [
                    0.19201,
                    -0.19201,
                    -1.96651
                ]
            ],
            [
                [
                    -2.14755,
                    0.84759,
                    -0.27454
                ],
                [
                    0.84733,
                    -2.14758,
                    0.27442
                ],
                [
                    -0.19201,
                    0.19201,
                    -1.96651
                ]
            ],
            [
                [
                    -2.14755,
                    0.84759,
                    0.27454
                ],
                [
                    0.84733,
                    -2.14758,
                    -0.27442
                ],
                [
                    0.19201,
                    -0.19201,
                    -1.96663
                ]
            ],
            [
                [
                    -1.65268,
                    -0.40554,
                    0.0
                ],
                [
                    -0.40554,
                    -1.65268,
                    0.0
                ],
                [
                    -2e-05,
                    -2e-05,
                    -2.49059
                ]
            ],
            [
                [
                    -1.65256,
                    0.40546,
                    0.0
                ],
                [
                    0.40554,
                    -1.65268,
                    0.0
                ],
                [
                    2e-05,
                    -2e-05,
                    -2.49059
                ]
            ],
            [
                [
                    -1.65268,
                    0.40554,
                    0.0
                ],
                [
                    0.40546,
                    -1.65256,
                    0.0
                ],
                [
                    -2e-05,
                    2e-05,
                    -2.49059
                ]
            ],
            [
                [
                    -1.65256,
                    -0.40546,
                    0.0
                ],
                [
                    -0.40546,
                    -1.65256,
                    0.0
                ],
                [
                    2e-05,
                    2e-05,
                    -2.49059
                ]
            ],
            [
                [
                    -2.14755,
                    -0.84759,
                    0.27454
                ],
                [
                    -0.84759,
                    -2.14755,
                    0.27455
                ],
                [
                    0.19201,
                    0.19201,
                    -1.96663
                ]
            ],
            [
                [
                    -2.14758,
                    0.84733,
                    -0.27442
                ],
                [
                    0.84759,
                    -2.14755,
                    0.27455
                ],
                [
                    -0.19201,
                    0.19201,
                    -1.96663
                ]
            ]
        ]
    },
    "band_gap": 0.8916000000000004,
    "is_direct": true,
    "formula": "Zn(SbO3)2"
}