{
    "mp_id": "mp-3338",
    "nelements": 3,
    "nsites": 16,
    "elements": [
        "Ga",
        "Na",
        "O"
    ],
    "structure": {
        "@module": "pymatgen.core.structure",
        "@class": "Structure",
        "charge": null,
        "lattice": {
            "matrix": [
                [
                    5.52774737,
                    0.0,
                    0.0
                ],
                [
                    0.0,
                    7.12811645,
                    0.0
                ],
                [
                    0.0,
                    0.0,
                    5.28510568
                ]
            ],
            "a": 5.52774737,
            "b": 7.12811645,
            "c": 5.28510568,
            "alpha": 90.0,
            "beta": 90.0,
            "gamma": 90.0,
            "volume": 208.24599052965652
        },
        "sites": [
            {
                "species": [
                    {
                        "element": "Na",
                        "occu": 1
                    }
                ],
                "abc": [
                    0.07066279,
                    0.62237501,
                    0.01391991
                ],
                "xyz": [
                    0.39060605157936235,
                    4.4363615468499145,
                    0.0735681954060888
                ],
                "label": "Na",
                "properties": {}
            },
            {
                "species": [
                    {
                        "element": "Na",
                        "occu": 1
                    }
                ],
                "abc": [
                    0.42933721,
                    0.12237501,
                    0.51391991
                ],
                "xyz": [
                    2.373267633420638,
                    0.8723033218499145,
                    2.716121035406089
                ],
                "label": "Na",
                "properties": {}
            },
            {
                "species": [
                    {
                        "element": "Na",
                        "occu": 1
                    }
                ],
                "abc": [
                    0.92933721,
                    0.37762499,
                    0.51391991
                ],
                "xyz": [
                    5.137141318420638,
                    2.6917549031500854,
                    2.716121035406089
                ],
                "label": "Na",
                "properties": {}
            },
            {
                "species": [
                    {
                        "element": "Na",
                        "occu": 1
                    }
                ],
                "abc": [
                    0.57066279,
                    0.87762499,
                    0.01391991
                ],
                "xyz": [
                    3.154479736579362,
                    6.255813128150086,
                    0.0735681954060888
                ],
                "label": "Na",
                "properties": {}
            },
            {
                "species": [
                    {
                        "element": "Ga",
                        "occu": 1
                    }
                ],
                "abc": [
                    0.06463279,
                    0.12622225,
                    0.99998308
                ],
                "xyz": [
                    0.3572737349382623,
                    0.8997268965810126,
                    5.285016256011895
                ],
                "label": "Ga",
                "properties": {}
            },
            {
                "species": [
                    {
                        "element": "Ga",
                        "occu": 1
                    }
                ],
                "abc": [
                    0.93536721,
                    0.87377775,
                    0.49998308
                ],
                "xyz": [
                    5.170473635061738,
                    6.228389553418988,
                    2.6424634160118945
                ],
                "label": "Ga",
                "properties": {}
            },
            {
                "species": [
                    {
                        "element": "Ga",
                        "occu": 1
                    }
                ],
                "abc": [
                    0.43536721,
                    0.62622225,
                    0.49998308
                ],
                "xyz": [
                    2.4065999500617377,
                    4.4637851215810125,
                    2.6424634160118945
                ],
                "label": "Ga",
                "properties": {}
            },
            {
                "species": [
                    {
                        "element": "Ga",
                        "occu": 1
                    }
                ],
                "abc": [
                    0.56463279,
                    0.37377775,
                    0.99998308
                ],
                "xyz": [
                    3.1211474199382625,
                    2.664331328418988,
                    5.285016256011895
                ],
                "label": "Ga",
                "properties": {}
            },
            {
                "species": [
                    {
                        "element": "O",
                        "occu": 1
                    }
                ],
                "abc": [
                    0.45805513,
                    0.59134227,
                    0.15250009
                ],
                "xyz": [
                    2.532013040172508,
                    4.2151565623673415,
                    0.8059790918595112
                ],
                "label": "O",
                "properties": {}
            },
            {
                "species": [
                    {
                        "element": "O",
                        "occu": 1
                    }
                ],
                "abc": [
                    0.54194487,
                    0.40865773,
                    0.65250009
                ],
                "xyz": [
                    2.995734329827492,
                    2.912959887632659,
                    3.448531931859511
                ],
                "label": "O",
                "properties": {}
            },
            {
                "species": [
                    {
                        "element": "O",
                        "occu": 1
                    }
                ],
                "abc": [
                    0.04194487,
                    0.09134227,
                    0.65250009
                ],
                "xyz": [
                    0.2318606448274919,
                    0.6510983373673416,
                    3.448531931859511
                ],
                "label": "O",
                "properties": {}
            },
            {
                "species": [
                    {
                        "element": "O",
                        "occu": 1
                    }
                ],
                "abc": [
                    0.95805513,
                    0.90865773,
                    0.15250009
                ],
                "xyz": [
                    5.295886725172508,
                    6.477018112632659,
                    0.8059790918595112
                ],
                "label": "O",
                "properties": {}
            },
            {
                "species": [
                    {
                        "element": "O",
                        "occu": 1
                    }
                ],
                "abc": [
                    0.88878492,
                    0.33936018,
                    0.08309793
                ],
                "xyz": [
                    4.91297850402566,
                    2.418998881532961,
                    0.4391813418392424
                ],
                "label": "O",
                "properties": {}
            },
            {
                "species": [
                    {
                        "element": "O",
                        "occu": 1
                    }
                ],
                "abc": [
                    0.38878492,
                    0.16063982,
                    0.08309793
                ],
                "xyz": [
                    2.1491048190256605,
                    1.1450593434670389,
                    0.4391813418392424
                ],
                "label": "O",
                "properties": {}
            },
            {
                "species": [
                    {
                        "element": "O",
                        "occu": 1
                    }
                ],
                "abc": [
                    0.61121508,
                    0.83936018,
                    0.58309793
                ],
                "xyz": [
                    3.3786425509743396,
                    5.983057106532962,
                    3.0817341818392423
                ],
                "label": "O",
                "properties": {}
            },
            {
                "species": [
                    {
                        "element": "O",
                        "occu": 1
                    }
                ],
                "abc": [
                    0.11121508,
                    0.66063982,
                    0.58309793
                ],
                "xyz": [
                    0.6147688659743396,
                    4.709117568467039,
                    3.0817341818392423
                ],
                "label": "O",
                "properties": {}
            }
        ]
    },
    "spacegroup": {
        "source": "spglib",
        "symbol": "Pna2_1",
        "number": 33,
        "point_group": "mm2",
        "crystal_system": "orthorhombic",
        "hall": "P 2c -2n"
    },
    "dielectric": {
        "epsilon_ionic": [
            [
                3.46318362,
                -0.0,
                -1.29e-06
            ],
            [
                -0.0,
                2.5615965,
                -5.1e-07
            ],
            [
                -1.29e-06,
                -5.1e-07,
                3.76722438
            ]
        ],
        "epsilon_ionic_avg": 3.264001500000001,
        "epsilon_ionic_eig": [
            3.4631836199945285,
            3.7672243800056897,
            2.561596499999784
        ],
        "epsilon_electronic": [
            [
                3.11638528,
                0.0,
                0.0
            ],
            [
                0.0,
                2.99902322,
                0.0
            ],
            [
                0.0,
                0.0,
                3.07248946
            ]
        ],
        "epsilon_electronic_avg": 3.0626326533333335,
        "epsilon_electronic_eig": [
            3.11638528,
            2.99902322,
            3.07248946
        ]
    },
    "phonon": {
        "lowest_freq": -0.11409422613032853,
        "frequency": [
            -0.11409422613032853,
            -0.0666290929586531,
            -0.03911152316921003,
            3.232979160644107,
            3.255528379123106,
            3.711081498850911,
            4.3044687480953705,
            4.487321407048786,
            4.761786597015573,
            4.8162717327682,
            4.8405154970886635,
            5.812998901107459,
            5.860671462173515,
            5.995568635782483,
            6.064724088272345,
            6.14728792309715,
            6.468391176281589,
            6.657354018222026,
            6.829456352835599,
            7.26163471885204,
            7.689956705376298,
            7.717738418522731,
            7.869673839509207,
            8.118568006102983,
            8.33318565692518,
            8.434757025488521,
            8.59695444527471,
            8.662681723747792,
            8.695563172852896,
            9.586662064238448,
            9.727416354683813,
            10.264964782461295,
            12.801494041631997,
            12.842150211057733,
            13.202931280040158,
            13.672100997292748,
            14.278619833143853,
            14.528174148968999,
            15.037555021239989,
            15.406717013237598,
            18.64384999676819,
            18.894300336490495,
            19.209516701474964,
            19.48620576986794,
            19.681563915610628,
            21.068624450466903,
            21.480835518163367,
            21.63092209041999
        ]
    },
    "born_effective_charge": {
        "avg_abs_trace": 1.8062662500000002,
        "tensors": [
            [
                [
                    1.00629,
                    0.03762,
                    0.00421
                ],
                [
                    -0.01406,
                    1.02296,
                    -0.00694
                ],
                [
                    0.01683,
                    0.02955,
                    1.03885
                ]
            ],
            [
                [
                    1.00629,
                    -0.03762,
                    -0.00421
                ],
                [
                    0.01406,
                    1.02296,
                    -0.00694
                ],
                [
                    -0.01683,
                    0.02955,
                    1.03885
                ]
            ],
            [
                [
                    1.00629,
                    0.03762,
                    -0.00421
                ],
                [
                    -0.01406,
                    1.02296,
                    0.00694
                ],
                [
                    -0.01683,
                    -0.02955,
                    1.03885
                ]
            ],
            [
                [
                    1.00629,
                    -0.03762,
                    0.00421
                ],
                [
                    0.01406,
                    1.02296,
                    0.00694
                ],
                [
                    0.01683,
                    -0.02955,
                    1.03885
                ]
            ],
            [
                [
                    2.65238,
                    -0.27888,
                    0.07041
                ],
                [
                    0.27662,
                    2.51124,
                    0.30465
                ],
                [
                    -0.1102,
                    -0.29523,
                    2.60588
                ]
            ],
            [
                [
                    2.65237,
                    -0.27889,
                    -0.0704
                ],
                [
                    0.27662,
                    2.51124,
                    -0.30466
                ],
                [
                    0.1102,
                    0.29523,
                    2.60588
                ]
            ],
            [
                [
                    2.65237,
                    0.27889,
                    -0.0704
                ],
                [
                    -0.27662,
                    2.51124,
                    0.30465
                ],
                [
                    0.1102,
                    -0.29523,
                    2.60588
                ]
            ],
            [
                [
                    2.65238,
                    0.27888,
                    0.07041
                ],
                [
                    -0.27662,
                    2.51124,
                    -0.30466
                ],
                [
                    -0.1102,
                    0.29523,
                    2.60588
                ]
            ],
            [
                [
                    -1.34964,
                    0.07929,
                    0.13668
                ],
                [
                    0.25227,
                    -1.77516,
                    -0.46944
                ],
                [
                    0.17537,
                    -0.50015,
                    -2.26714
                ]
            ],
            [
                [
                    -1.34963,
                    0.07928,
                    -0.13668
                ],
                [
                    0.25227,
                    -1.77515,
                    0.46944
                ],
                [
                    -0.17537,
                    0.50015,
                    -2.26714
                ]
            ],
            [
                [
                    -1.34963,
                    -0.07928,
                    -0.13668
                ],
                [
                    -0.25227,
                    -1.77516,
                    -0.46944
                ],
                [
                    -0.17537,
                    -0.50015,
                    -2.26714
                ]
            ],
            [
                [
                    -1.34964,
                    -0.07929,
                    0.13668
                ],
                [
                    -0.25227,
                    -1.77515,
                    0.46944
                ],
                [
                    0.17537,
                    0.50015,
                    -2.26714
                ]
            ],
            [
                [
                    -2.30903,
                    0.48995,
                    -0.06519
                ],
                [
                    0.5216,
                    -1.75905,
                    -0.07482
                ],
                [
                    -0.01529,
                    -0.09651,
                    -1.37759
                ]
            ],
            [
                [
                    -2.30903,
                    -0.48995,
                    -0.06519
                ],
                [
                    -0.52159,
                    -1.75905,
                    0.07482
                ],
                [
                    -0.01529,
                    0.09651,
                    -1.37759
                ]
            ],
            [
                [
                    -2.30903,
                    -0.48995,
                    0.06519
                ],
                [
                    -0.5216,
                    -1.75905,
                    -0.07482
                ],
                [
                    0.01529,
                    -0.09651,
                    -1.37759
                ]
            ],
            [
                [
                    -2.30903,
                    0.48995,
                    0.06519
                ],
                [
                    0.52159,
                    -1.75905,
                    0.07482
                ],
                [
                    0.01529,
                    0.09651,
                    -1.37759
                ]
            ]
        ]
    },
    "band_gap": 2.9318999999999997,
    "is_direct": true,
    "formula": "NaGaO2"
}