{
    "mp_id": "mp-3079",
    "nelements": 3,
    "nsites": 32,
    "elements": [
        "Ca",
        "O",
        "Ta"
    ],
    "structure": {
        "@module": "pymatgen.core.structure",
        "@class": "Structure",
        "charge": null,
        "lattice": {
            "matrix": [
                [
                    6.23699251,
                    0.0,
                    0.0
                ],
                [
                    -3.11849676,
                    5.40139366,
                    0.0
                ],
                [
                    0.0,
                    0.0,
                    12.3269944
                ]
            ],
            "a": 6.23699251,
            "b": 6.236992505400234,
            "c": 12.3269944,
            "alpha": 90.0,
            "beta": 90.0,
            "gamma": 120.00000538122997,
            "volume": 415.2773566953687
        },
        "sites": [
            {
                "species": [
                    {
                        "element": "Ca",
                        "occu": 1
                    }
                ],
                "abc": [
                    0.333333,
                    0.666667,
                    0.75
                ],
                "xyz": [
                    -3.4551630903045805e-06,
                    3.6009309071312203,
                    9.2452458
                ],
                "label": "Ca",
                "properties": {}
            },
            {
                "species": [
                    {
                        "element": "Ca",
                        "occu": 1
                    }
                ],
                "abc": [
                    0.666667,
                    0.333333,
                    0.25
                ],
                "xyz": [
                    3.11849920516309,
                    1.80046275286878,
                    3.0817486
                ],
                "label": "Ca",
                "properties": {}
            },
            {
                "species": [
                    {
                        "element": "Ta",
                        "occu": 1
                    }
                ],
                "abc": [
                    0.666667,
                    0.333333,
                    0.75
                ],
                "xyz": [
                    3.11849920516309,
                    1.80046275286878,
                    9.2452458
                ],
                "label": "Ta",
                "properties": {}
            },
            {
                "species": [
                    {
                        "element": "Ta",
                        "occu": 1
                    }
                ],
                "abc": [
                    0.333333,
                    0.666667,
                    0.25
                ],
                "xyz": [
                    -3.4551630903045805e-06,
                    3.6009309071312203,
                    3.0817486
                ],
                "label": "Ta",
                "properties": {}
            },
            {
                "species": [
                    {
                        "element": "Ta",
                        "occu": 1
                    }
                ],
                "abc": [
                    0.63903413,
                    0.0,
                    0.5
                ],
                "xyz": [
                    3.9856510824443663,
                    0.0,
                    6.1634972
                ],
                "label": "Ta",
                "properties": {}
            },
            {
                "species": [
                    {
                        "element": "Ta",
                        "occu": 1
                    }
                ],
                "abc": [
                    0.63903413,
                    0.63903413,
                    0.0
                ],
                "xyz": [
                    1.9928252185099473,
                    3.451674898305616,
                    0.0
                ],
                "label": "Ta",
                "properties": {}
            },
            {
                "species": [
                    {
                        "element": "Ta",
                        "occu": 1
                    }
                ],
                "abc": [
                    0.0,
                    0.36096587,
                    0.0
                ],
                "xyz": [
                    -1.1256708960655812,
                    1.9497187616943843,
                    0.0
                ],
                "label": "Ta",
                "properties": {}
            },
            {
                "species": [
                    {
                        "element": "Ta",
                        "occu": 1
                    }
                ],
                "abc": [
                    0.0,
                    0.63903413,
                    0.5
                ],
                "xyz": [
                    -1.992825863934419,
                    3.451674898305616,
                    6.1634972
                ],
                "label": "Ta",
                "properties": {}
            },
            {
                "species": [
                    {
                        "element": "Ta",
                        "occu": 1
                    }
                ],
                "abc": [
                    0.36096587,
                    0.36096587,
                    0.5
                ],
                "xyz": [
                    1.1256705314900528,
                    1.9497187616943843,
                    6.1634972
                ],
                "label": "Ta",
                "properties": {}
            },
            {
                "species": [
                    {
                        "element": "Ta",
                        "occu": 1
                    }
                ],
                "abc": [
                    0.36096587,
                    0.0,
                    0.0
                ],
                "xyz": [
                    2.251341427555634,
                    0.0,
                    0.0
                ],
                "label": "Ta",
                "properties": {}
            },
            {
                "species": [
                    {
                        "element": "O",
                        "occu": 1
                    }
                ],
                "abc": [
                    0.333333,
                    0.666667,
                    0.53594061
                ],
                "xyz": [
                    -3.4551630903045805e-06,
                    3.6009309071312203,
                    6.6065368982025845
                ],
                "label": "O",
                "properties": {}
            },
            {
                "species": [
                    {
                        "element": "O",
                        "occu": 1
                    }
                ],
                "abc": [
                    0.666667,
                    0.333333,
                    0.03594061
                ],
                "xyz": [
                    3.11849920516309,
                    1.80046275286878,
                    0.443039698202584
                ],
                "label": "O",
                "properties": {}
            },
            {
                "species": [
                    {
                        "element": "O",
                        "occu": 1
                    }
                ],
                "abc": [
                    0.666667,
                    0.333333,
                    0.46405939
                ],
                "xyz": [
                    3.11849920516309,
                    1.80046275286878,
                    5.720457501797417
                ],
                "label": "O",
                "properties": {}
            },
            {
                "species": [
                    {
                        "element": "O",
                        "occu": 1
                    }
                ],
                "abc": [
                    0.333333,
                    0.666667,
                    0.96405939
                ],
                "xyz": [
                    -3.4551630903045805e-06,
                    3.6009309071312203,
                    11.883954701797416
                ],
                "label": "O",
                "properties": {}
            },
            {
                "species": [
                    {
                        "element": "O",
                        "occu": 1
                    }
                ],
                "abc": [
                    0.25202803,
                    0.0,
                    0.5
                ],
                "xyz": [
                    1.5718969354200554,
                    0.0,
                    6.1634972
                ],
                "label": "O",
                "properties": {}
            },
            {
                "species": [
                    {
                        "element": "O",
                        "occu": 1
                    }
                ],
                "abc": [
                    0.25202803,
                    0.25202803,
                    0.0
                ],
                "xyz": [
                    0.7859483404358725,
                    1.3613026033842899,
                    0.0
                ],
                "label": "O",
                "properties": {}
            },
            {
                "species": [
                    {
                        "element": "O",
                        "occu": 1
                    }
                ],
                "abc": [
                    0.0,
                    0.74797197,
                    0.0
                ],
                "xyz": [
                    -2.3325481650158175,
                    4.040091056615711,
                    0.0
                ],
                "label": "O",
                "properties": {}
            },
            {
                "species": [
                    {
                        "element": "O",
                        "occu": 1
                    }
                ],
                "abc": [
                    0.0,
                    0.25202803,
                    0.5
                ],
                "xyz": [
                    -0.7859485949841829,
                    1.3613026033842899,
                    6.1634972
                ],
                "label": "O",
                "properties": {}
            },
            {
                "species": [
                    {
                        "element": "O",
                        "occu": 1
                    }
                ],
                "abc": [
                    0.74797197,
                    0.74797197,
                    0.5
                ],
                "xyz": [
                    2.332547409564128,
                    4.040091056615711,
                    6.1634972
                ],
                "label": "O",
                "properties": {}
            },
            {
                "species": [
                    {
                        "element": "O",
                        "occu": 1
                    }
                ],
                "abc": [
                    0.74797197,
                    0.0,
                    0.0
                ],
                "xyz": [
                    4.665095574579945,
                    0.0,
                    0.0
                ],
                "label": "O",
                "properties": {}
            },
            {
                "species": [
                    {
                        "element": "O",
                        "occu": 1
                    }
                ],
                "abc": [
                    0.37366773,
                    0.94623664,
                    0.15699726
                ],
                "xyz": [
                    -0.6202730627945843,
                    5.110996588155702,
                    1.935304344835344
                ],
                "label": "O",
                "properties": {}
            },
            {
                "species": [
                    {
                        "element": "O",
                        "occu": 1
                    }
                ],
                "abc": [
                    0.42743109,
                    0.37366773,
                    0.65699726
                ],
                "xyz": [
                    1.5006029015495814,
                    2.0183265077685917,
                    8.098801544835345
                ],
                "label": "O",
                "properties": {}
            },
            {
                "species": [
                    {
                        "element": "O",
                        "occu": 1
                    }
                ],
                "abc": [
                    0.94623664,
                    0.57256891,
                    0.65699726
                ],
                "xyz": [
                    4.116116545655835,
                    3.0926700803871108,
                    8.098801544835345
                ],
                "label": "O",
                "properties": {}
            },
            {
                "species": [
                    {
                        "element": "O",
                        "occu": 1
                    }
                ],
                "abc": [
                    0.05376336,
                    0.42743109,
                    0.15699726
                ],
                "xyz": [
                    -0.997620795655835,
                    2.3087235796128893,
                    1.935304344835344
                ],
                "label": "O",
                "properties": {}
            },
            {
                "species": [
                    {
                        "element": "O",
                        "occu": 1
                    }
                ],
                "abc": [
                    0.57256891,
                    0.62633227,
                    0.15699726
                ],
                "xyz": [
                    1.6178928484504187,
                    3.3830671522314084,
                    1.935304344835344
                ],
                "label": "O",
                "properties": {}
            },
            {
                "species": [
                    {
                        "element": "O",
                        "occu": 1
                    }
                ],
                "abc": [
                    0.42743109,
                    0.05376336,
                    0.84300274
                ],
                "xyz": [
                    2.498223642904423,
                    0.29039707184429764,
                    10.391690055164656
                ],
                "label": "O",
                "properties": {}
            },
            {
                "species": [
                    {
                        "element": "O",
                        "occu": 1
                    }
                ],
                "abc": [
                    0.62633227,
                    0.57256891,
                    0.84300274
                ],
                "xyz": [
                    2.1208753860495664,
                    3.0926700803871108,
                    10.391690055164656
                ],
                "label": "O",
                "properties": {}
            },
            {
                "species": [
                    {
                        "element": "O",
                        "occu": 1
                    }
                ],
                "abc": [
                    0.62633227,
                    0.05376336,
                    0.65699726
                ],
                "xyz": [
                    3.738768812794585,
                    0.29039707184429764,
                    8.098801544835345
                ],
                "label": "O",
                "properties": {}
            },
            {
                "species": [
                    {
                        "element": "O",
                        "occu": 1
                    }
                ],
                "abc": [
                    0.94623664,
                    0.37366773,
                    0.84300274
                ],
                "xyz": [
                    4.736389231046012,
                    2.0183265077685917,
                    10.391690055164656
                ],
                "label": "O",
                "properties": {}
            },
            {
                "species": [
                    {
                        "element": "O",
                        "occu": 1
                    }
                ],
                "abc": [
                    0.05376336,
                    0.62633227,
                    0.34300274
                ],
                "xyz": [
                    -1.6178934810460117,
                    3.3830671522314084,
                    4.2281928551646555
                ],
                "label": "O",
                "properties": {}
            },
            {
                "species": [
                    {
                        "element": "O",
                        "occu": 1
                    }
                ],
                "abc": [
                    0.57256891,
                    0.94623664,
                    0.34300274
                ],
                "xyz": [
                    0.6202721070955777,
                    5.110996588155702,
                    4.2281928551646555
                ],
                "label": "O",
                "properties": {}
            },
            {
                "species": [
                    {
                        "element": "O",
                        "occu": 1
                    }
                ],
                "abc": [
                    0.37366773,
                    0.42743109,
                    0.34300274
                ],
                "xyz": [
                    0.9976203639504335,
                    2.3087235796128893,
                    4.2281928551646555
                ],
                "label": "O",
                "properties": {}
            }
        ]
    },
    "spacegroup": {
        "source": "spglib",
        "symbol": "P6_322",
        "number": 182,
        "point_group": "622",
        "crystal_system": "hexagonal",
        "hall": "P 6c 2c"
    },
    "dielectric": {
        "epsilon_ionic": [
            [
                19.77460027,
                1.7e-07,
                -0.0
            ],
            [
                1.7e-07,
                19.77414326,
                -0.0
            ],
            [
                -0.0,
                -0.0,
                25.98437654
            ]
        ],
        "epsilon_ionic_avg": 21.844373356666665,
        "epsilon_ionic_eig": [
            19.77460027006324,
            19.77414325993676,
            25.98437654
        ],
        "epsilon_electronic": [
            [
                4.82261573,
                4.5e-07,
                0.0
            ],
            [
                4.5e-07,
                4.82261505,
                -0.0
            ],
            [
                0.0,
                0.0,
                5.09622839
            ]
        ],
        "epsilon_electronic_avg": 4.913819723333333,
        "epsilon_electronic_eig": [
            4.822615954003546,
            4.822614825996453,
            5.09622839
        ]
    },
    "phonon": {
        "lowest_freq": -0.01990660750572552,
        "frequency": [
            -0.01990660750572552,
            -0.015278736667938737,
            -0.01527873489237203,
            1.8819477125894881,
            1.8819479203743197,
            3.054070243413956,
            3.0540705395042127,
            3.1517608244711126,
            3.1517611230154867,
            3.656845049616951,
            3.656845213359276,
            3.863982709958876,
            3.927140418175231,
            4.026111445479536,
            4.495463478299833,
            4.495463494609616,
            4.664338633831643,
            4.921847867063477,
            5.2348664173668285,
            5.234866580771274,
            5.280818782681434,
            5.280818805821797,
            5.298226309412249,
            5.574922120134224,
            5.574922602365414,
            5.611515380864951,
            5.611515642184871,
            5.994051839332008,
            6.1181899382363945,
            6.33190316147703,
            6.651648931889525,
            6.651649170717648,
            6.813858832736036,
            6.933793444305035,
            6.933793461928874,
            6.983718636222845,
            7.225791179158204,
            7.470661214348362,
            7.625588358234424,
            7.625588662709448,
            8.567355780574069,
            8.567356222741061,
            9.222735255972696,
            9.41172664609112,
            9.411727230362528,
            9.558928144660326,
            9.558928579311793,
            9.67885826458073,
            9.816074648774046,
            9.816074910202513,
            9.982573570263954,
            10.168406284359682,
            10.168406524712125,
            10.292673181281746,
            10.53386322435488,
            11.639913525606847,
            11.639913872052901,
            11.649052103808744,
            11.649052135279131,
            11.756171724870521,
            12.018192632605738,
            12.276754978802758,
            12.276755237600923,
            12.303457967470393,
            12.303458513739864,
            13.087908557845289,
            13.243418224523303,
            13.65109822266273,
            15.457686950094791,
            15.532917686578962,
            15.55774295336833,
            15.557743243989044,
            15.671764355000882,
            15.671764510950222,
            16.14237626106356,
            16.50461327547569,
            16.50461342355558,
            17.772685808013847,
            17.772685876771078,
            19.019460628451874,
            19.019461013951968,
            19.18450577398,
            19.193689231968794,
            19.297951129470988,
            19.29795157273071,
            20.16066589090923,
            20.16066673949275,
            20.495484297883483,
            20.49548531147313,
            24.554150106438986,
            25.55967235201679,
            25.559672638875078,
            25.681920464383936,
            25.681920702294622,
            25.86646848053528,
            26.170124667709295
        ]
    },
    "born_effective_charge": {
        "avg_abs_trace": 3.8572667708333332,
        "tensors": [
            [
                [
                    2.39536,
                    0.00013,
                    0.00017
                ],
                [
                    0.0,
                    2.39534,
                    0.0
                ],
                [
                    0.0,
                    -0.0,
                    2.81248
                ]
            ],
            [
                [
                    2.39536,
                    -0.00013,
                    -0.00017
                ],
                [
                    0.0,
                    2.39538,
                    0.0
                ],
                [
                    0.0,
                    -0.0,
                    2.81248
                ]
            ],
            [
                [
                    6.16761,
                    -1e-05,
                    0.00042
                ],
                [
                    0.0,
                    6.16745,
                    0.0
                ],
                [
                    0.0,
                    -0.0,
                    9.67874
                ]
            ],
            [
                [
                    6.16761,
                    1e-05,
                    -0.00042
                ],
                [
                    0.0,
                    6.16734,
                    0.0
                ],
                [
                    0.0,
                    -0.0,
                    9.67874
                ]
            ],
            [
                [
                    6.50953,
                    0.0,
                    0.0
                ],
                [
                    -2e-05,
                    7.67868,
                    1.42165
                ],
                [
                    6e-05,
                    0.45987,
                    6.79751
                ]
            ],
            [
                [
                    7.38643,
                    -0.50619,
                    -1.23107
                ],
                [
                    -0.50622,
                    6.80173,
                    0.7107
                ],
                [
                    -0.39823,
                    0.22999,
                    6.79751
                ]
            ],
            [
                [
                    7.38643,
                    0.50619,
                    1.23107
                ],
                [
                    0.50638,
                    6.80195,
                    0.71076
                ],
                [
                    0.39829,
                    0.22988,
                    6.79751
                ]
            ],
            [
                [
                    7.38659,
                    0.50632,
                    -1.23106
                ],
                [
                    0.50622,
                    6.80173,
                    -0.7107
                ],
                [
                    -0.39829,
                    -0.22988,
                    6.79751
                ]
            ],
            [
                [
                    7.38659,
                    -0.50632,
                    1.23106
                ],
                [
                    -0.50638,
                    6.80195,
                    -0.71076
                ],
                [
                    0.39823,
                    -0.22999,
                    6.79751
                ]
            ],
            [
                [
                    6.50957,
                    0.0,
                    0.0
                ],
                [
                    2e-05,
                    7.67868,
                    -1.42165
                ],
                [
                    -6e-05,
                    -0.45987,
                    6.79751
                ]
            ],
            [
                [
                    -3.32983,
                    -0.11838,
                    -6e-05
                ],
                [
                    0.11807,
                    -3.3298,
                    -2e-05
                ],
                [
                    0.0,
                    -0.0,
                    -1.45911
                ]
            ],
            [
                [
                    -3.32988,
                    -0.11788,
                    -5e-05
                ],
                [
                    0.11811,
                    -3.33005,
                    9e-05
                ],
                [
                    0.0,
                    -0.0,
                    -1.45911
                ]
            ],
            [
                [
                    -3.32983,
                    0.11838,
                    6e-05
                ],
                [
                    -0.11812,
                    -3.33005,
                    -9e-05
                ],
                [
                    0.0,
                    -0.0,
                    -1.4592
                ]
            ],
            [
                [
                    -3.32988,
                    0.11788,
                    5e-05
                ],
                [
                    -0.11807,
                    -3.3298,
                    2e-05
                ],
                [
                    0.0,
                    -0.0,
                    -1.4592
                ]
            ],
            [
                [
                    -2.21411,
                    0.0,
                    0.0
                ],
                [
                    0.00061,
                    -5.30241,
                    0.08809
                ],
                [
                    -3e-05,
                    -0.1088,
                    -0.9805
                ]
            ],
            [
                [
                    -4.5303,
                    1.33754,
                    -0.07623
                ],
                [
                    1.33754,
                    -2.98592,
                    0.04404
                ],
                [
                    0.09421,
                    -0.05443,
                    -0.9805
                ]
            ],
            [
                [
                    -4.5303,
                    -1.33754,
                    0.07623
                ],
                [
                    -1.33732,
                    -2.98621,
                    0.04409
                ],
                [
                    -0.09424,
                    -0.05438,
                    -0.9805
                ]
            ],
            [
                [
                    -4.53036,
                    -1.33733,
                    -0.07633
                ],
                [
                    -1.33754,
                    -2.98592,
                    -0.04404
                ],
                [
                    0.09424,
                    0.05438,
                    -0.9805
                ]
            ],
            [
                [
                    -4.53036,
                    1.33733,
                    0.07633
                ],
                [
                    1.33732,
                    -2.98621,
                    -0.04409
                ],
                [
                    -0.09421,
                    0.05443,
                    -0.9805
                ]
            ],
            [
                [
                    -2.21377,
                    0.0,
                    0.0
                ],
                [
                    -0.00061,
                    -5.30241,
                    -0.08809
                ],
                [
                    3e-05,
                    0.1088,
                    -0.9805
                ]
            ],
            [
                [
                    -1.26023,
                    0.38287,
                    -0.81061
                ],
                [
                    0.38603,
                    -2.70992,
                    1.40559
                ],
                [
                    -0.90748,
                    1.38557,
                    -4.50396
                ]
            ],
            [
                [
                    -2.68068,
                    0.43399,
                    -1.6227
                ],
                [
                    0.43718,
                    -1.28981,
                    0.00076
                ],
                [
                    -1.65368,
                    -0.09312,
                    -4.50396
                ]
            ],
            [
                [
                    -2.01466,
                    -0.82156,
                    0.81182
                ],
                [
                    -0.81841,
                    -1.95565,
                    1.4047
                ],
                [
                    0.74619,
                    1.47869,
                    -4.50396
                ]
            ],
            [
                [
                    -2.01463,
                    -0.82152,
                    -0.81184
                ],
                [
                    -0.81849,
                    -1.95562,
                    -1.40478
                ],
                [
                    -0.74619,
                    -1.47869,
                    -4.50396
                ]
            ],
            [
                [
                    -2.68072,
                    0.43397,
                    1.6227
                ],
                [
                    0.4372,
                    -1.28977,
                    -0.00069
                ],
                [
                    1.65368,
                    0.09312,
                    -4.50396
                ]
            ],
            [
                [
                    -1.26023,
                    -0.38287,
                    0.81061
                ],
                [
                    -0.38592,
                    -2.70996,
                    1.40562
                ],
                [
                    0.90746,
                    1.38561,
                    -4.50402
                ]
            ],
            [
                [
                    -2.01463,
                    0.82152,
                    0.81184
                ],
                [
                    0.81841,
                    -1.95565,
                    -1.4047
                ],
                [
                    0.74625,
                    -1.47869,
                    -4.50402
                ]
            ],
            [
                [
                    -1.2603,
                    0.38278,
                    0.81057
                ],
                [
                    0.38592,
                    -2.70996,
                    -1.40562
                ],
                [
                    0.90748,
                    -1.38557,
                    -4.50396
                ]
            ],
            [
                [
                    -2.68072,
                    -0.43397,
                    -1.6227
                ],
                [
                    -0.43718,
                    -1.28981,
                    -0.00076
                ],
                [
                    -1.6537,
                    0.09307,
                    -4.50402
                ]
            ],
            [
                [
                    -2.68068,
                    -0.43399,
                    1.6227
                ],
                [
                    -0.4372,
                    -1.28977,
                    0.00069
                ],
                [
                    1.6537,
                    -0.09307,
                    -4.50402
                ]
            ],
            [
                [
                    -1.2603,
                    -0.38278,
                    -0.81057
                ],
                [
                    -0.38603,
                    -2.70992,
                    -1.40559
                ],
                [
                    -0.90746,
                    -1.38561,
                    -4.50402
                ]
            ],
            [
                [
                    -2.01466,
                    0.82156,
                    -0.81182
                ],
                [
                    0.81849,
                    -1.95562,
                    1.40478
                ],
                [
                    -0.74625,
                    1.47869,
                    -4.50402
                ]
            ]
        ]
    },
    "band_gap": 3.9756,
    "is_direct": false,
    "formula": "CaTa4O11"
}