{
    "mp_id": "mp-3978",
    "nelements": 3,
    "nsites": 30,
    "elements": [
        "O",
        "Si",
        "Sr"
    ],
    "structure": {
        "@module": "pymatgen.core.structure",
        "@class": "Structure",
        "charge": null,
        "lattice": {
            "matrix": [
                [
                    6.16223002,
                    -3.56862584,
                    0.00049711
                ],
                [
                    6.16223002,
                    3.56862584,
                    0.00049711
                ],
                [
                    -4.01275015,
                    0.0,
                    10.11179834
                ]
            ],
            "a": 7.120966890277138,
            "b": 7.120966890277138,
            "c": 10.878907547872249,
            "alpha": 108.61031232760337,
            "beta": 108.61031232760337,
            "gamma": 60.151356452528944,
            "volume": 444.7451488707851
        },
        "sites": [
            {
                "species": [
                    {
                        "element": "Sr",
                        "occu": 1
                    }
                ],
                "abc": [
                    0.5,
                    0.0,
                    0.5
                ],
                "xyz": [
                    1.0747399350000002,
                    -1.78431292,
                    5.056147725
                ],
                "label": "Sr",
                "properties": {}
            },
            {
                "species": [
                    {
                        "element": "Sr",
                        "occu": 1
                    }
                ],
                "abc": [
                    0.0,
                    0.5,
                    0.0
                ],
                "xyz": [
                    3.08111501,
                    1.78431292,
                    0.000248555
                ],
                "label": "Sr",
                "properties": {}
            },
            {
                "species": [
                    {
                        "element": "Sr",
                        "occu": 1
                    }
                ],
                "abc": [
                    0.32783869,
                    0.84529104,
                    0.99918847
                ],
                "xyz": [
                    3.2196015566897254,
                    1.8465938271787243,
                    10.10417548681322
                ],
                "label": "Sr",
                "properties": {}
            },
            {
                "species": [
                    {
                        "element": "Sr",
                        "occu": 1
                    }
                ],
                "abc": [
                    0.15470896,
                    0.67216131,
                    0.50081153
                ],
                "xyz": [
                    3.0857332583102766,
                    1.846593827178724,
                    5.06451624318678
                ],
                "label": "Sr",
                "properties": {}
            },
            {
                "species": [
                    {
                        "element": "Sr",
                        "occu": 1
                    }
                ],
                "abc": [
                    0.67216131,
                    0.15470896,
                    0.00081153
                ],
                "xyz": [
                    5.092108333310276,
                    -1.846593827178724,
                    0.0086170731867799
                ],
                "label": "Sr",
                "properties": {}
            },
            {
                "species": [
                    {
                        "element": "Sr",
                        "occu": 1
                    }
                ],
                "abc": [
                    0.84529104,
                    0.32783869,
                    0.49918847
                ],
                "xyz": [
                    5.225976631689725,
                    -1.8465938271787243,
                    5.04827631681322
                ],
                "label": "Sr",
                "properties": {}
            },
            {
                "species": [
                    {
                        "element": "Si",
                        "occu": 1
                    }
                ],
                "abc": [
                    0.83304693,
                    0.16695307,
                    0.75
                ],
                "xyz": [
                    3.1526674075,
                    -2.3770397606613423,
                    7.584345865
                ],
                "label": "Si",
                "properties": {}
            },
            {
                "species": [
                    {
                        "element": "Si",
                        "occu": 1
                    }
                ],
                "abc": [
                    0.16695307,
                    0.83304693,
                    0.25
                ],
                "xyz": [
                    5.1590424825,
                    2.3770397606613423,
                    2.528446695
                ],
                "label": "Si",
                "properties": {}
            },
            {
                "species": [
                    {
                        "element": "Si",
                        "occu": 1
                    }
                ],
                "abc": [
                    0.58187674,
                    0.66738775,
                    0.74643344
                ],
                "xyz": [
                    4.703004244872974,
                    0.3051567998904985,
                    7.548405441383114
                ],
                "label": "Si",
                "properties": {}
            },
            {
                "species": [
                    {
                        "element": "Si",
                        "occu": 1
                    }
                ],
                "abc": [
                    0.33261225,
                    0.41812326,
                    0.75356656
                ],
                "xyz": [
                    1.6023305701270263,
                    0.3051567998904985,
                    7.620286288616886
                ],
                "label": "Si",
                "properties": {}
            },
            {
                "species": [
                    {
                        "element": "Si",
                        "occu": 1
                    }
                ],
                "abc": [
                    0.41812326,
                    0.33261225,
                    0.25356656
                ],
                "xyz": [
                    3.608705645127026,
                    -0.3051567998904985,
                    2.5643871186168865
                ],
                "label": "Si",
                "properties": {}
            },
            {
                "species": [
                    {
                        "element": "Si",
                        "occu": 1
                    }
                ],
                "abc": [
                    0.66738775,
                    0.58187674,
                    0.24643344
                ],
                "xyz": [
                    6.7093793198729745,
                    -0.3051567998904985,
                    2.4925062713831134
                ],
                "label": "Si",
                "properties": {}
            },
            {
                "species": [
                    {
                        "element": "O",
                        "occu": 1
                    }
                ],
                "abc": [
                    0.36627013,
                    0.63372987,
                    0.75
                ],
                "xyz": [
                    3.152667407500001,
                    0.9544637393236817,
                    7.584345865
                ],
                "label": "O",
                "properties": {}
            },
            {
                "species": [
                    {
                        "element": "O",
                        "occu": 1
                    }
                ],
                "abc": [
                    0.63372987,
                    0.36627013,
                    0.25
                ],
                "xyz": [
                    5.159042482500001,
                    -0.9544637393236817,
                    2.528446695
                ],
                "label": "O",
                "properties": {}
            },
            {
                "species": [
                    {
                        "element": "O",
                        "occu": 1
                    }
                ],
                "abc": [
                    0.98330888,
                    0.11216975,
                    0.89091384
                ],
                "xyz": [
                    3.1755766549573976,
                    -3.1087696095531197,
                    9.009285661776785
                ],
                "label": "O",
                "properties": {}
            },
            {
                "species": [
                    {
                        "element": "O",
                        "occu": 1
                    }
                ],
                "abc": [
                    0.88783025,
                    0.01669112,
                    0.60908616
                ],
                "xyz": [
                    3.129758160042603,
                    -3.1087696095531197,
                    6.159406068223215
                ],
                "label": "O",
                "properties": {}
            },
            {
                "species": [
                    {
                        "element": "O",
                        "occu": 1
                    }
                ],
                "abc": [
                    0.01669112,
                    0.88783025,
                    0.10908616
                ],
                "xyz": [
                    5.136133235042603,
                    3.1087696095531197,
                    1.103506898223215
                ],
                "label": "O",
                "properties": {}
            },
            {
                "species": [
                    {
                        "element": "O",
                        "occu": 1
                    }
                ],
                "abc": [
                    0.11216975,
                    0.98330888,
                    0.39091384
                ],
                "xyz": [
                    5.181951729957397,
                    3.1087696095531197,
                    3.953386491776785
                ],
                "label": "O",
                "properties": {}
            },
            {
                "species": [
                    {
                        "element": "O",
                        "occu": 1
                    }
                ],
                "abc": [
                    0.79862735,
                    0.41717123,
                    0.7483189
                ],
                "xyz": [
                    4.489213729726536,
                    -1.361274166658141,
                    7.56745419644273
                ],
                "label": "O",
                "properties": {}
            },
            {
                "species": [
                    {
                        "element": "O",
                        "occu": 1
                    }
                ],
                "abc": [
                    0.58282877,
                    0.20137265,
                    0.7516811
                ],
                "xyz": [
                    1.8161210852734642,
                    -1.361274166658141,
                    7.60123753355727
                ],
                "label": "O",
                "properties": {}
            },
            {
                "species": [
                    {
                        "element": "O",
                        "occu": 1
                    }
                ],
                "abc": [
                    0.20137265,
                    0.58282877,
                    0.2516811
                ],
                "xyz": [
                    3.822496160273464,
                    1.361274166658141,
                    2.54533836355727
                ],
                "label": "O",
                "properties": {}
            },
            {
                "species": [
                    {
                        "element": "O",
                        "occu": 1
                    }
                ],
                "abc": [
                    0.41717123,
                    0.79862735,
                    0.2483189
                ],
                "xyz": [
                    6.495588804726536,
                    1.361274166658141,
                    2.5115550264427298
                ],
                "label": "O",
                "properties": {}
            },
            {
                "species": [
                    {
                        "element": "O",
                        "occu": 1
                    }
                ],
                "abc": [
                    0.62877831,
                    0.81797727,
                    0.8864945
                ],
                "xyz": [
                    5.357959728829336,
                    0.6751802975571266,
                    8.964772810185504
                ],
                "label": "O",
                "properties": {}
            },
            {
                "species": [
                    {
                        "element": "O",
                        "occu": 1
                    }
                ],
                "abc": [
                    0.18202273,
                    0.37122169,
                    0.6135055
                ],
                "xyz": [
                    0.9473750861706631,
                    0.6751802975571265,
                    6.203918919814496
                ],
                "label": "O",
                "properties": {}
            },
            {
                "species": [
                    {
                        "element": "O",
                        "occu": 1
                    }
                ],
                "abc": [
                    0.71961465,
                    0.53443595,
                    0.10357072
                ],
                "xyz": [
                    7.312144831703404,
                    -0.6608334938376081,
                    1.047909635662371
                ],
                "label": "O",
                "properties": {}
            },
            {
                "species": [
                    {
                        "element": "O",
                        "occu": 1
                    }
                ],
                "abc": [
                    0.46556405,
                    0.28038535,
                    0.39642928
                ],
                "xyz": [
                    3.005940133296596,
                    -0.6608334938376081,
                    4.0089837543376285
                ],
                "label": "O",
                "properties": {}
            },
            {
                "species": [
                    {
                        "element": "O",
                        "occu": 1
                    }
                ],
                "abc": [
                    0.28038535,
                    0.46556405,
                    0.89642928
                ],
                "xyz": [
                    0.999565058296596,
                    0.6608334938376081,
                    9.06488292433763
                ],
                "label": "O",
                "properties": {}
            },
            {
                "species": [
                    {
                        "element": "O",
                        "occu": 1
                    }
                ],
                "abc": [
                    0.53443595,
                    0.71961465,
                    0.60357072
                ],
                "xyz": [
                    5.305769756703405,
                    0.6608334938376081,
                    6.103808805662371
                ],
                "label": "O",
                "properties": {}
            },
            {
                "species": [
                    {
                        "element": "O",
                        "occu": 1
                    }
                ],
                "abc": [
                    0.81797727,
                    0.62877831,
                    0.3864945
                ],
                "xyz": [
                    7.364334803829335,
                    -0.6751802975571266,
                    3.908873640185504
                ],
                "label": "O",
                "properties": {}
            },
            {
                "species": [
                    {
                        "element": "O",
                        "occu": 1
                    }
                ],
                "abc": [
                    0.37122169,
                    0.18202273,
                    0.1135055
                ],
                "xyz": [
                    2.9537501611706634,
                    -0.6751802975571265,
                    1.1480197498144962
                ],
                "label": "O",
                "properties": {}
            }
        ]
    },
    "spacegroup": {
        "source": "spglib",
        "symbol": "C2/c",
        "number": 15,
        "point_group": "2/m",
        "crystal_system": "monoclinic",
        "hall": "-C 2yc"
    },
    "dielectric": {
        "epsilon_ionic": [
            [
                5.28491971,
                -0.0,
                0.03647095
            ],
            [
                -0.0,
                5.4536703,
                -0.0
            ],
            [
                0.03647095,
                -0.0,
                4.00628207
            ]
        ],
        "epsilon_ionic_avg": 4.91495736,
        "epsilon_ionic_eig": [
            5.285959136452792,
            4.005242643547208,
            5.4536703
        ],
        "epsilon_electronic": [
            [
                2.75760834,
                0.0,
                0.00504821
            ],
            [
                0.0,
                2.75702737,
                0.0
            ],
            [
                0.00504829,
                0.0,
                2.90067863
            ]
        ],
        "epsilon_electronic_avg": 2.80510478,
        "epsilon_electronic_eig": [
            2.757430433201656,
            2.9008565367983437,
            2.75702737
        ]
    },
    "phonon": {
        "lowest_freq": -0.03450078271783891,
        "frequency": [
            -0.03450078271783891,
            -0.0272367957512827,
            -0.023065344631849442,
            2.5687378507152325,
            2.6897143749585495,
            3.362992035414623,
            3.407855252326089,
            3.6021425436565484,
            3.6506817808690517,
            3.661183061811969,
            3.692911152975384,
            3.7887098038543945,
            3.7899986505584553,
            3.844047032015836,
            3.9030396579367785,
            4.035561889009959,
            4.067887892060352,
            4.083691334854316,
            4.1193472187769435,
            4.723089956461732,
            4.800056670770969,
            4.891509243922572,
            4.908189997484004,
            4.915671665032678,
            5.069045294815658,
            5.203631402083297,
            5.215733347339875,
            5.217283515858614,
            5.355838233163159,
            5.363047350169982,
            5.4593876266876595,
            5.695247879801524,
            5.760020016647136,
            5.861962718209214,
            6.35654467465252,
            6.413895885426629,
            8.16751917252821,
            8.267116937010977,
            8.332507216288715,
            8.533183402453046,
            8.611495092089552,
            8.68848678026991,
            9.320345630365093,
            9.373474369108589,
            9.391617236057373,
            9.493134503814979,
            9.760550312056933,
            9.831999369475028,
            10.06593835248732,
            10.091253948844916,
            10.412624974300307,
            10.513501819554058,
            12.072341451627512,
            12.121674112716596,
            12.170343769354366,
            12.182228219381424,
            13.300608286148094,
            13.301546495327992,
            13.81991889390959,
            13.931842838666377,
            14.234839322794363,
            14.2449881769554,
            15.40795133641192,
            15.570263244243991,
            15.603915289131209,
            15.849944412107645,
            16.488054746246956,
            16.49958964107444,
            20.3543297461773,
            20.393066193804415,
            20.414731539168248,
            20.48188289667433,
            26.59565368885438,
            26.596226278963933,
            26.724552716056902,
            26.863858172191176,
            26.917339210373004,
            27.036988912482744,
            28.309360525837025,
            28.32579033323143,
            28.383343413791973,
            28.383894966090978,
            28.43743446139231,
            28.491015658313092,
            30.721217949445858,
            30.980070428871713,
            31.038058414851303,
            31.15515845499705,
            31.213029518405268,
            33.570829425959765
        ]
    },
    "born_effective_charge": {
        "avg_abs_trace": 2.128596111111111,
        "tensors": [
            [
                [
                    2.61415,
                    0.24361,
                    0.13545
                ],
                [
                    0.24632,
                    2.30541,
                    0.06976
                ],
                [
                    0.0339,
                    0.01066,
                    2.4689
                ]
            ],
            [
                [
                    2.61415,
                    -0.24361,
                    0.13545
                ],
                [
                    -0.24632,
                    2.30541,
                    -0.06976
                ],
                [
                    0.0339,
                    -0.01066,
                    2.4689
                ]
            ],
            [
                [
                    2.37259,
                    0.11934,
                    -0.03545
                ],
                [
                    0.11943,
                    2.52023,
                    0.03012
                ],
                [
                    0.00636,
                    0.00543,
                    2.48024
                ]
            ],
            [
                [
                    2.37235,
                    -0.11931,
                    -0.03541
                ],
                [
                    -0.11943,
                    2.52023,
                    -0.03012
                ],
                [
                    0.00635,
                    -0.00538,
                    2.48022
                ]
            ],
            [
                [
                    2.37235,
                    0.11931,
                    -0.03541
                ],
                [
                    0.11949,
                    2.52014,
                    0.03014
                ],
                [
                    0.00635,
                    0.00538,
                    2.48022
                ]
            ],
            [
                [
                    2.37259,
                    -0.11934,
                    -0.03545
                ],
                [
                    -0.11949,
                    2.52014,
                    -0.03014
                ],
                [
                    0.00636,
                    -0.00543,
                    2.48024
                ]
            ],
            [
                [
                    2.59706,
                    7e-05,
                    0.00368
                ],
                [
                    0.0,
                    2.86815,
                    0.0
                ],
                [
                    -9e-05,
                    -1e-05,
                    3.10856
                ]
            ],
            [
                [
                    2.59706,
                    -7e-05,
                    0.00368
                ],
                [
                    0.0,
                    2.86819,
                    0.0
                ],
                [
                    -9e-05,
                    1e-05,
                    3.10856
                ]
            ],
            [
                [
                    2.80106,
                    0.11735,
                    -0.0132
                ],
                [
                    0.11633,
                    2.66387,
                    0.00271
                ],
                [
                    -0.01892,
                    -0.0061,
                    3.12773
                ]
            ],
            [
                [
                    2.80104,
                    -0.11737,
                    -0.01341
                ],
                [
                    -0.11633,
                    2.66387,
                    -0.00271
                ],
                [
                    -0.01891,
                    0.00608,
                    3.12777
                ]
            ],
            [
                [
                    2.80104,
                    0.11737,
                    -0.01341
                ],
                [
                    0.11633,
                    2.66392,
                    0.0027
                ],
                [
                    -0.01891,
                    -0.00608,
                    3.12777
                ]
            ],
            [
                [
                    2.80106,
                    -0.11735,
                    -0.0132
                ],
                [
                    -0.11633,
                    2.66392,
                    -0.0027
                ],
                [
                    -0.01892,
                    0.0061,
                    3.12773
                ]
            ],
            [
                [
                    -2.597,
                    6e-05,
                    0.02408
                ],
                [
                    0.0,
                    -1.22692,
                    0.0
                ],
                [
                    0.02736,
                    2e-05,
                    -1.53792
                ]
            ],
            [
                [
                    -2.597,
                    -6e-05,
                    0.02408
                ],
                [
                    0.0,
                    -1.22685,
                    0.0
                ],
                [
                    0.02736,
                    -2e-05,
                    -1.53792
                ]
            ],
            [
                [
                    -1.4207,
                    0.01169,
                    -0.01498
                ],
                [
                    0.00174,
                    -1.87072,
                    0.48526
                ],
                [
                    -0.01505,
                    0.39262,
                    -2.00355
                ]
            ],
            [
                [
                    -1.42074,
                    -0.01177,
                    -0.01471
                ],
                [
                    -0.00174,
                    -1.87072,
                    -0.48526
                ],
                [
                    -0.01504,
                    -0.39259,
                    -2.00361
                ]
            ],
            [
                [
                    -1.42074,
                    0.01177,
                    -0.01471
                ],
                [
                    0.00168,
                    -1.87072,
                    0.48521
                ],
                [
                    -0.01504,
                    0.39259,
                    -2.00361
                ]
            ],
            [
                [
                    -1.4207,
                    -0.01169,
                    -0.01498
                ],
                [
                    -0.00168,
                    -1.87072,
                    -0.48521
                ],
                [
                    -0.01505,
                    -0.39262,
                    -2.00355
                ]
            ],
            [
                [
                    -1.57034,
                    -0.59264,
                    0.00595
                ],
                [
                    -0.59218,
                    -2.25642,
                    0.01105
                ],
                [
                    0.01121,
                    0.01245,
                    -1.53862
                ]
            ],
            [
                [
                    -1.57041,
                    0.59274,
                    0.00593
                ],
                [
                    0.59218,
                    -2.25642,
                    -0.01105
                ],
                [
                    0.01122,
                    -0.01245,
                    -1.53864
                ]
            ],
            [
                [
                    -1.57041,
                    -0.59274,
                    0.00593
                ],
                [
                    -0.59225,
                    -2.25658,
                    0.01106
                ],
                [
                    0.01122,
                    0.01245,
                    -1.53864
                ]
            ],
            [
                [
                    -1.57034,
                    0.59264,
                    0.00595
                ],
                [
                    0.59225,
                    -2.25658,
                    -0.01106
                ],
                [
                    0.01121,
                    -0.01245,
                    -1.53862
                ]
            ],
            [
                [
                    -1.7602,
                    -0.20495,
                    -0.43293
                ],
                [
                    -0.19224,
                    -1.51777,
                    -0.25067
                ],
                [
                    -0.34731,
                    -0.20073,
                    -2.0255
                ]
            ],
            [
                [
                    -1.76008,
                    0.205,
                    -0.43289
                ],
                [
                    0.19224,
                    -1.51777,
                    0.25067
                ],
                [
                    -0.34728,
                    0.20075,
                    -2.02559
                ]
            ],
            [
                [
                    -1.72934,
                    0.19296,
                    0.40888
                ],
                [
                    0.19203,
                    -1.51248,
                    -0.23762
                ],
                [
                    0.33312,
                    -0.1959,
                    -2.05997
                ]
            ],
            [
                [
                    -1.72944,
                    -0.19301,
                    0.40901
                ],
                [
                    -0.19203,
                    -1.51248,
                    0.23762
                ],
                [
                    0.33309,
                    0.19591,
                    -2.06003
                ]
            ],
            [
                [
                    -1.72944,
                    0.19301,
                    0.40901
                ],
                [
                    0.19193,
                    -1.5125,
                    -0.23751
                ],
                [
                    0.33309,
                    -0.19591,
                    -2.06003
                ]
            ],
            [
                [
                    -1.72934,
                    -0.19296,
                    0.40888
                ],
                [
                    -0.19193,
                    -1.5125,
                    0.23751
                ],
                [
                    0.33312,
                    0.1959,
                    -2.05997
                ]
            ],
            [
                [
                    -1.7602,
                    0.20495,
                    -0.43293
                ],
                [
                    0.19221,
                    -1.51766,
                    0.25057
                ],
                [
                    -0.34731,
                    0.20073,
                    -2.0255
                ]
            ],
            [
                [
                    -1.76008,
                    -0.205,
                    -0.43289
                ],
                [
                    -0.19221,
                    -1.51766,
                    -0.25057
                ],
                [
                    -0.34728,
                    -0.20075,
                    -2.02559
                ]
            ]
        ]
    },
    "band_gap": 4.6284,
    "is_direct": false,
    "formula": "SrSiO3"
}