{
    "mp_id": "mp-32533",
    "nelements": 3,
    "nsites": 19,
    "elements": [
        "Na",
        "O",
        "W"
    ],
    "structure": {
        "@module": "pymatgen.core.structure",
        "@class": "Structure",
        "charge": null,
        "lattice": {
            "matrix": [
                [
                    3.80331197,
                    -7.587e-05,
                    0.00118838
                ],
                [
                    -0.03078891,
                    8.34701108,
                    0.01451338
                ],
                [
                    -1.8876542,
                    -0.80684279,
                    8.1853245
                ]
            ],
            "a": 3.8033121564168995,
            "b": 8.347080481510933,
            "c": 8.438825204781343,
            "alpha": 95.34188144533734,
            "beta": 102.90774367154924,
            "gamma": 90.21245261098275,
            "volume": 259.9169357883635
        },
        "sites": [
            {
                "species": [
                    {
                        "element": "Na",
                        "occu": 1
                    }
                ],
                "abc": [
                    0.71101875,
                    0.68831134,
                    0.42266067
                ],
                "xyz": [
                    1.8851965779698845,
                    5.404267722271015,
                    3.4704494218352697
                ],
                "label": "Na",
                "properties": {}
            },
            {
                "species": [
                    {
                        "element": "Na",
                        "occu": 1
                    }
                ],
                "abc": [
                    0.28898125,
                    0.31168866,
                    0.57733933
                ],
                "xyz": [
                    -0.00032771796988395607,
                    2.1358246977289843,
                    4.7305768381647315
                ],
                "label": "Na",
                "properties": {}
            },
            {
                "species": [
                    {
                        "element": "W",
                        "occu": 1
                    }
                ],
                "abc": [
                    0.9355978,
                    0.63403948,
                    0.82514904
                ],
                "xyz": [
                    1.9812528763775317,
                    4.62649802731293,
                    6.764426554885286
                ],
                "label": "W",
                "properties": {}
            },
            {
                "species": [
                    {
                        "element": "W",
                        "occu": 1
                    }
                ],
                "abc": [
                    0.0644022,
                    0.36596052,
                    0.17485096
                ],
                "xyz": [
                    -0.09638401637753113,
                    2.9135943926870693,
                    1.4365997051147137
                ],
                "label": "W",
                "properties": {}
            },
            {
                "species": [
                    {
                        "element": "W",
                        "occu": 1
                    }
                ],
                "abc": [
                    0.87492824,
                    0.02334502,
                    0.80494843
                ],
                "xyz": [
                    1.8074419956903987,
                    -0.454672077270067,
                    6.590142667683754
                ],
                "label": "W",
                "properties": {}
            },
            {
                "species": [
                    {
                        "element": "W",
                        "occu": 1
                    }
                ],
                "abc": [
                    0.12507176,
                    0.97665498,
                    0.19505157
                ],
                "xyz": [
                    0.07742686430960144,
                    7.994764497270067,
                    1.6108835923162463
                ],
                "label": "W",
                "properties": {}
            },
            {
                "species": [
                    {
                        "element": "O",
                        "occu": 1
                    }
                ],
                "abc": [
                    0.99672577,
                    0.84509931,
                    0.99332903
                ],
                "xyz": [
                    1.8897776497903889,
                    6.252517316732992,
                    8.144170182214555
                ],
                "label": "O",
                "properties": {}
            },
            {
                "species": [
                    {
                        "element": "O",
                        "occu": 1
                    }
                ],
                "abc": [
                    0.60195271,
                    0.99041225,
                    0.1855193
                ],
                "xyz": [
                    1.9087239478627311,
                    8.117251444754773,
                    1.5336252494152647
                ],
                "label": "O",
                "properties": {}
            },
            {
                "species": [
                    {
                        "element": "O",
                        "occu": 1
                    }
                ],
                "abc": [
                    0.42855829,
                    0.64566692,
                    0.84258264
                ],
                "xyz": [
                    0.019556834266786227,
                    4.709524692448846,
                    6.90669242593074
                ],
                "label": "O",
                "properties": {}
            },
            {
                "species": [
                    {
                        "element": "O",
                        "occu": 1
                    }
                ],
                "abc": [
                    0.57144171,
                    0.35433308,
                    0.15741736
                ],
                "xyz": [
                    1.8653120257332143,
                    2.8305677275511543,
                    1.2943338340692603
                ],
                "label": "O",
                "properties": {}
            },
            {
                "species": [
                    {
                        "element": "O",
                        "occu": 1
                    }
                ],
                "abc": [
                    0.0,
                    0.5,
                    0.0
                ],
                "xyz": [
                    -0.015394455,
                    4.17350554,
                    0.00725669
                ],
                "label": "O",
                "properties": {}
            },
            {
                "species": [
                    {
                        "element": "O",
                        "occu": 1
                    }
                ],
                "abc": [
                    0.83308819,
                    0.49069624,
                    0.65475226
                ],
                "xyz": [
                    1.917440429173444,
                    3.5675016055761586,
                    5.367471401547293
                ],
                "label": "O",
                "properties": {}
            },
            {
                "species": [
                    {
                        "element": "O",
                        "occu": 1
                    }
                ],
                "abc": [
                    0.16691181,
                    0.50930376,
                    0.34524774
                ],
                "xyz": [
                    -0.03257156917344406,
                    3.972590814423841,
                    2.833554858452707
                ],
                "label": "O",
                "properties": {}
            },
            {
                "species": [
                    {
                        "element": "O",
                        "occu": 1
                    }
                ],
                "abc": [
                    0.823148,
                    0.15678154,
                    0.65472757
                ],
                "xyz": [
                    1.8899622613905442,
                    0.7803325800119829,
                    5.362411262233711
                ],
                "label": "O",
                "properties": {}
            },
            {
                "species": [
                    {
                        "element": "O",
                        "occu": 1
                    }
                ],
                "abc": [
                    0.15635889,
                    0.18862012,
                    0.31317056
                ],
                "xyz": [
                    -0.0022834928463079107,
                    1.3217229602256828,
                    2.566325986701624
                ],
                "label": "O",
                "properties": {}
            },
            {
                "species": [
                    {
                        "element": "O",
                        "occu": 1
                    }
                ],
                "abc": [
                    0.39804729,
                    0.00958775,
                    0.8144807
                ],
                "xyz": [
                    -0.02385508786273105,
                    -0.5771590247547753,
                    6.667401010584735
                ],
                "label": "O",
                "properties": {}
            },
            {
                "species": [
                    {
                        "element": "O",
                        "occu": 1
                    }
                ],
                "abc": [
                    0.00327423,
                    0.15490069,
                    0.00667097
                ],
                "xyz": [
                    -0.0049087897903888,
                    1.2875751032670089,
                    0.0568560777854446
                ],
                "label": "O",
                "properties": {}
            },
            {
                "species": [
                    {
                        "element": "O",
                        "occu": 1
                    }
                ],
                "abc": [
                    0.176852,
                    0.84321846,
                    0.34527243
                ],
                "xyz": [
                    -0.005093401390544594,
                    6.759759839988017,
                    2.83861499776629
                ],
                "label": "O",
                "properties": {}
            },
            {
                "species": [
                    {
                        "element": "O",
                        "occu": 1
                    }
                ],
                "abc": [
                    0.84364111,
                    0.81137988,
                    0.68682944
                ],
                "xyz": [
                    1.8871523528463077,
                    6.218369459774316,
                    5.634700273298376
                ],
                "label": "O",
                "properties": {}
            }
        ]
    },
    "spacegroup": {
        "source": "spglib",
        "symbol": "P-1",
        "number": 2,
        "point_group": "-1",
        "crystal_system": "triclinic",
        "hall": "-P 1"
    },
    "dielectric": {
        "epsilon_ionic": [
            [
                59.69466845,
                2.04415761,
                0.09535904
            ],
            [
                2.04415761,
                18.54522989,
                -2.28099355
            ],
            [
                0.09535904,
                -2.28099355,
                5.04897832
            ]
        ],
        "epsilon_ionic_avg": 27.762958886666677,
        "epsilon_ionic_eig": [
            59.79597126570947,
            18.82232381222559,
            4.670581582064971
        ],
        "epsilon_electronic": [
            [
                5.76542351,
                0.05607603,
                0.01396689
            ],
            [
                0.05607626,
                4.44935338,
                -0.07441379
            ],
            [
                0.01396651,
                -0.07442391,
                3.45642804
            ]
        ],
        "epsilon_electronic_avg": 4.557068310000003,
        "epsilon_electronic_eig": [
            5.767859002398771,
            4.452606184984657,
            3.450739742616579
        ]
    },
    "phonon": {
        "lowest_freq": -0.10013811353806626,
        "frequency": [
            -0.10013811353806626,
            -0.08696524172614203,
            -0.04797815913497309,
            1.4934252197732931,
            1.5605507686054532,
            1.567112354605999,
            2.1813671978078024,
            2.481951641742919,
            3.411997748246364,
            3.6330122109074323,
            3.753560420100466,
            3.9542065581472214,
            4.03919444740688,
            4.323644180149111,
            4.59829856979268,
            4.936467084636192,
            5.228613256121638,
            5.3615618901583675,
            5.636722153818625,
            6.2737358737863795,
            6.383017475849994,
            6.722294192250504,
            6.991551723129293,
            7.241504585225692,
            7.264935488483107,
            7.6262533828279375,
            8.075747247284493,
            8.138200875460567,
            8.166226767403927,
            8.84381059166713,
            8.881253507797677,
            9.361242045428735,
            9.390747929160378,
            9.540041483117815,
            9.77366903681507,
            9.804736483591856,
            10.177555966690148,
            10.75463259228795,
            10.797672420309476,
            10.990751008593977,
            12.142767512924246,
            12.810146435396565,
            16.008693991407792,
            16.52148827341829,
            17.29774235701186,
            18.287884122026153,
            18.664221810370016,
            19.176125778034773,
            19.42461150965052,
            19.502081819602843,
            22.639056178937764,
            23.13047332286703,
            23.696030984129443,
            25.769639211480953,
            26.025724114853315,
            27.157602583009737,
            27.38973744112411
        ]
    },
    "born_effective_charge": {
        "avg_abs_trace": 3.3294717543859647,
        "tensors": [
            [
                [
                    1.03808,
                    -0.00202,
                    0.00526
                ],
                [
                    -0.0048,
                    1.31574,
                    0.03096
                ],
                [
                    0.00173,
                    -0.05468,
                    1.68842
                ]
            ],
            [
                [
                    1.03808,
                    -0.00202,
                    0.00526
                ],
                [
                    -0.0048,
                    1.31574,
                    0.03095
                ],
                [
                    0.00174,
                    -0.05472,
                    1.68846
                ]
            ],
            [
                [
                    10.46134,
                    0.18604,
                    0.26046
                ],
                [
                    0.16175,
                    8.26981,
                    -1.73461
                ],
                [
                    0.10905,
                    -0.07272,
                    4.90945
                ]
            ],
            [
                [
                    10.46138,
                    0.18607,
                    0.26042
                ],
                [
                    0.16182,
                    8.26999,
                    -1.73456
                ],
                [
                    0.10915,
                    -0.07313,
                    4.90923
                ]
            ],
            [
                [
                    10.07885,
                    0.16057,
                    -0.16743
                ],
                [
                    0.16994,
                    5.43602,
                    1.4728
                ],
                [
                    -0.05598,
                    -0.24503,
                    4.24714
                ]
            ],
            [
                [
                    10.07884,
                    0.16057,
                    -0.16746
                ],
                [
                    0.16989,
                    5.43585,
                    1.47283
                ],
                [
                    -0.05564,
                    -0.24513,
                    4.24754
                ]
            ],
            [
                [
                    -1.47987,
                    -0.11389,
                    -0.10222
                ],
                [
                    -0.00397,
                    -2.73155,
                    -1.80938
                ],
                [
                    -0.0656,
                    -0.84216,
                    -2.59537
                ]
            ],
            [
                [
                    -7.51808,
                    -0.07535,
                    0.05065
                ],
                [
                    -0.13318,
                    -0.8932,
                    -0.31834
                ],
                [
                    0.04373,
                    -0.0062,
                    -0.61951
                ]
            ],
            [
                [
                    -7.84284,
                    -0.04516,
                    -0.1069
                ],
                [
                    -0.11165,
                    -1.29517,
                    0.26686
                ],
                [
                    -0.0963,
                    0.05154,
                    -0.64533
                ]
            ],
            [
                [
                    -7.84283,
                    -0.04523,
                    -0.10686
                ],
                [
                    -0.11171,
                    -1.29515,
                    0.2669
                ],
                [
                    -0.0962,
                    0.05149,
                    -0.64572
                ]
            ],
            [
                [
                    -1.56631,
                    -0.11,
                    0.15445
                ],
                [
                    -0.22776,
                    -4.11484,
                    4.09709
                ],
                [
                    0.13395,
                    1.88697,
                    -2.68358
                ]
            ],
            [
                [
                    -1.22097,
                    -0.11239,
                    -0.13616
                ],
                [
                    -0.07913,
                    -1.8258,
                    -1.11991
                ],
                [
                    -0.07609,
                    -0.85824,
                    -2.35196
                ]
            ],
            [
                [
                    -1.22088,
                    -0.11241,
                    -0.13613
                ],
                [
                    -0.07927,
                    -1.82588,
                    -1.12024
                ],
                [
                    -0.07677,
                    -0.85688,
                    -2.35048
                ]
            ],
            [
                [
                    -1.24837,
                    -0.12563,
                    0.11718
                ],
                [
                    -0.09092,
                    -1.7865,
                    1.06817
                ],
                [
                    0.08358,
                    1.04145,
                    -1.81188
                ]
            ],
            [
                [
                    -1.48507,
                    0.18296,
                    0.00186
                ],
                [
                    0.20594,
                    -4.43197,
                    0.09526
                ],
                [
                    -0.01079,
                    0.04075,
                    -1.47894
                ]
            ],
            [
                [
                    -7.51809,
                    -0.07546,
                    0.05067
                ],
                [
                    -0.13323,
                    -0.89296,
                    -0.31846
                ],
                [
                    0.04374,
                    -0.00619,
                    -0.61918
                ]
            ],
            [
                [
                    -1.47984,
                    -0.11391,
                    -0.10211
                ],
                [
                    -0.00399,
                    -2.73154,
                    -1.80947
                ],
                [
                    -0.06564,
                    -0.84173,
                    -2.59493
                ]
            ],
            [
                [
                    -1.24834,
                    -0.12559,
                    0.11717
                ],
                [
                    -0.09099,
                    -1.7865,
                    1.06809
                ],
                [
                    0.0833,
                    1.04345,
                    -1.81416
                ]
            ],
            [
                [
                    -1.48509,
                    0.18286,
                    0.0019
                ],
                [
                    0.20607,
                    -4.43208,
                    0.09505
                ],
                [
                    -0.01095,
                    0.04116,
                    -1.47917
                ]
            ]
        ]
    },
    "band_gap": 1.6029999999999998,
    "is_direct": false,
    "formula": "Na2W4O13"
}