{
    "mp_id": "mp-3996",
    "nelements": 3,
    "nsites": 18,
    "elements": [
        "As",
        "Ga",
        "O"
    ],
    "structure": {
        "@module": "pymatgen.core.structure",
        "@class": "Structure",
        "charge": null,
        "lattice": {
            "matrix": [
                [
                    5.00521002,
                    -0.0,
                    0.0
                ],
                [
                    -2.50260551,
                    4.33463922,
                    0.0
                ],
                [
                    0.0,
                    0.0,
                    11.49331412
                ]
            ],
            "a": 5.00521002,
            "b": 5.005210435760375,
            "c": 11.49331412,
            "alpha": 90.0,
            "beta": 90.0,
            "gamma": 120.00000386127454,
            "volume": 249.35641067653998
        },
        "sites": [
            {
                "species": [
                    {
                        "element": "Ga",
                        "occu": 1
                    }
                ],
                "abc": [
                    0.45053925,
                    0.0,
                    0.333333
                ],
                "xyz": [
                    2.255043568503285,
                    0.0,
                    3.83110087556196
                ],
                "label": "Ga",
                "properties": {}
            },
            {
                "species": [
                    {
                        "element": "Ga",
                        "occu": 1
                    }
                ],
                "abc": [
                    0.0,
                    0.45053925,
                    0.666667
                ],
                "xyz": [
                    -1.1275220095212675,
                    1.9529251031993848,
                    7.662213244438041
                ],
                "label": "Ga",
                "properties": {}
            },
            {
                "species": [
                    {
                        "element": "Ga",
                        "occu": 1
                    }
                ],
                "abc": [
                    0.54946075,
                    0.54946075,
                    0.0
                ],
                "xyz": [
                    1.3750829510179827,
                    2.381714116800615,
                    0.0
                ],
                "label": "Ga",
                "properties": {}
            },
            {
                "species": [
                    {
                        "element": "As",
                        "occu": 1
                    }
                ],
                "abc": [
                    0.44874559,
                    0.0,
                    0.833333
                ],
                "xyz": [
                    2.246065923498812,
                    0.0,
                    9.57775793556196
                ],
                "label": "As",
                "properties": {}
            },
            {
                "species": [
                    {
                        "element": "As",
                        "occu": 1
                    }
                ],
                "abc": [
                    0.0,
                    0.44874559,
                    0.166667
                ],
                "xyz": [
                    -1.123033186122201,
                    1.9451502342160398,
                    1.9155561844380402
                ],
                "label": "As",
                "properties": {}
            },
            {
                "species": [
                    {
                        "element": "As",
                        "occu": 1
                    }
                ],
                "abc": [
                    0.55125441,
                    0.55125441,
                    0.5
                ],
                "xyz": [
                    1.379571772623389,
                    2.38948898578396,
                    5.74665706
                ],
                "label": "As",
                "properties": {}
            },
            {
                "species": [
                    {
                        "element": "O",
                        "occu": 1
                    }
                ],
                "abc": [
                    0.29941891,
                    0.39487085,
                    0.12904228
                ],
                "xyz": [
                    0.5104485635610946,
                    1.7116226732447368,
                    1.4831234588009938
                ],
                "label": "O",
                "properties": {}
            },
            {
                "species": [
                    {
                        "element": "O",
                        "occu": 1
                    }
                ],
                "abc": [
                    0.60512915,
                    0.90454806,
                    0.46237528
                ],
                "xyz": [
                    0.7650715259582723,
                    3.9208894972509127,
                    5.314224334362954
                ],
                "label": "O",
                "properties": {}
            },
            {
                "species": [
                    {
                        "element": "O",
                        "occu": 1
                    }
                ],
                "abc": [
                    0.09545194,
                    0.70058109,
                    0.79570828
                ],
                "xyz": [
                    -1.2755210895193672,
                    3.0367662695043496,
                    9.145325209924914
                ],
                "label": "O",
                "properties": {}
            },
            {
                "species": [
                    {
                        "element": "O",
                        "occu": 1
                    }
                ],
                "abc": [
                    0.90454806,
                    0.60512915,
                    0.53762472
                ],
                "xyz": [
                    3.013053468431945,
                    2.6230165467552626,
                    6.179089785637046
                ],
                "label": "O",
                "properties": {}
            },
            {
                "species": [
                    {
                        "element": "O",
                        "occu": 1
                    }
                ],
                "abc": [
                    0.70058109,
                    0.09545194,
                    0.20429172
                ],
                "xyz": [
                    3.267676940506332,
                    0.4137497227490868,
                    2.347988910075087
                ],
                "label": "O",
                "properties": {}
            },
            {
                "species": [
                    {
                        "element": "O",
                        "occu": 1
                    }
                ],
                "abc": [
                    0.39487085,
                    0.29941891,
                    0.87095772
                ],
                "xyz": [
                    1.227084121061723,
                    1.29787295049565,
                    10.010190661199008
                ],
                "label": "O",
                "properties": {}
            },
            {
                "species": [
                    {
                        "element": "O",
                        "occu": 1
                    }
                ],
                "abc": [
                    0.39460867,
                    0.31841075,
                    0.38126289
                ],
                "xyz": [
                    1.1782427716696406,
                    1.380195725019615,
                    4.381974157069007
                ],
                "label": "O",
                "properties": {}
            },
            {
                "species": [
                    {
                        "element": "O",
                        "occu": 1
                    }
                ],
                "abc": [
                    0.68158925,
                    0.07619791,
                    0.71459689
                ],
                "xyz": [
                    3.2208040342078013,
                    0.33029044916803013,
                    8.213086525945087
                ],
                "label": "O",
                "properties": {}
            },
            {
                "species": [
                    {
                        "element": "O",
                        "occu": 1
                    }
                ],
                "abc": [
                    0.92380209,
                    0.60539133,
                    0.04792989
                ],
                "xyz": [
                    3.108767799200714,
                    2.6241530024659623,
                    0.5508732815070468
                ],
                "label": "O",
                "properties": {}
            },
            {
                "species": [
                    {
                        "element": "O",
                        "occu": 1
                    }
                ],
                "abc": [
                    0.07619791,
                    0.68158925,
                    0.28540311
                ],
                "xyz": [
                    -1.3243624699717094,
                    2.954443494980385,
                    3.2802275940549137
                ],
                "label": "O",
                "properties": {}
            },
            {
                "species": [
                    {
                        "element": "O",
                        "occu": 1
                    }
                ],
                "abc": [
                    0.60539133,
                    0.92380209,
                    0.95207011
                ],
                "xyz": [
                    0.7181985503536104,
                    4.004348770831969,
                    10.942440838492953
                ],
                "label": "O",
                "properties": {}
            },
            {
                "species": [
                    {
                        "element": "O",
                        "occu": 1
                    }
                ],
                "abc": [
                    0.31841075,
                    0.39460867,
                    0.61873711
                ],
                "xyz": [
                    0.6061628445399433,
                    1.7104862175340372,
                    7.111339962930994
                ],
                "label": "O",
                "properties": {}
            }
        ]
    },
    "spacegroup": {
        "source": "spglib",
        "symbol": "P3_121",
        "number": 152,
        "point_group": "32",
        "crystal_system": "trigonal",
        "hall": "P 31 2\""
    },
    "dielectric": {
        "epsilon_ionic": [
            [
                3.38994295,
                -0.00020596,
                -1e-08
            ],
            [
                -0.00020596,
                3.38893664,
                -0.00033879
            ],
            [
                -1e-08,
                -0.00033879,
                3.11327018
            ]
        ],
        "epsilon_ionic_avg": 3.297383256666667,
        "epsilon_ionic_eig": [
            3.3899834872706327,
            3.388896519096886,
            3.1132697636324824
        ],
        "epsilon_electronic": [
            [
                3.1235438,
                0.0,
                0.0
            ],
            [
                0.0,
                3.12354378,
                0.0
            ],
            [
                0.0,
                0.0,
                3.24636086
            ]
        ],
        "epsilon_electronic_avg": 3.164482813333333,
        "epsilon_electronic_eig": [
            3.1235438,
            3.12354378,
            3.24636086
        ]
    },
    "phonon": {
        "lowest_freq": -0.12157060576261641,
        "frequency": [
            -0.12157060576261641,
            -0.12157060546106309,
            -0.08714447977162725,
            1.34703095731808,
            2.3460298452645,
            2.3460298452645,
            3.30084469751662,
            3.30084469751662,
            3.5029127903414303,
            3.525581339605298,
            3.667993214887246,
            3.6679932182187702,
            4.5277181991364,
            4.996210173749192,
            4.996210173749192,
            5.7277422777900036,
            6.105403391282999,
            6.105403391282999,
            6.705725205011332,
            6.705725205011332,
            7.154610131737827,
            8.108648448117664,
            8.248007550948712,
            8.248007550948712,
            8.479390855868688,
            8.479390870280108,
            8.832316111124378,
            9.16845178935451,
            9.421871492346089,
            9.421871492346089,
            12.187491687926121,
            12.620696443063299,
            12.620696443063299,
            14.29210185107078,
            14.29210185107078,
            14.450352033998366,
            15.294475445969603,
            15.686884926385174,
            15.910232110454418,
            15.910232110454418,
            16.217896096839905,
            16.217896096839905,
            24.308629377042024,
            24.47297694097531,
            24.47297694097531,
            24.894047116518763,
            24.894047116518763,
            25.014306867209825,
            25.0264666602808,
            26.569597443479502,
            26.569597443479502,
            26.579544114691497,
            27.656481589917743,
            27.656481589917743
        ]
    },
    "born_effective_charge": {
        "avg_abs_trace": 2.1935662962962965,
        "tensors": [
            [
                [
                    2.61637,
                    0.0,
                    0.0
                ],
                [
                    -0.0005,
                    3.27954,
                    -0.69801
                ],
                [
                    0.00015,
                    0.51431,
                    3.15322
                ]
            ],
            [
                [
                    3.11404,
                    0.28783,
                    0.60304
                ],
                [
                    0.2872,
                    2.78216,
                    0.34772
                ],
                [
                    -0.44548,
                    -0.25703,
                    3.15322
                ]
            ],
            [
                [
                    3.11404,
                    -0.28783,
                    -0.60304
                ],
                [
                    -0.28703,
                    2.78205,
                    0.34823
                ],
                [
                    0.44533,
                    -0.25728,
                    3.15322
                ]
            ],
            [
                [
                    3.20097,
                    0.0,
                    0.0
                ],
                [
                    -6e-05,
                    3.76486,
                    -0.78586
                ],
                [
                    -9e-05,
                    0.57366,
                    3.72777
                ]
            ],
            [
                [
                    3.62356,
                    0.24396,
                    0.6821
                ],
                [
                    0.24367,
                    3.34132,
                    0.39425
                ],
                [
                    -0.49676,
                    -0.28691,
                    3.72777
                ]
            ],
            [
                [
                    3.62356,
                    -0.24396,
                    -0.6821
                ],
                [
                    -0.24398,
                    3.34086,
                    0.3935
                ],
                [
                    0.49685,
                    -0.28676,
                    3.72777
                ]
            ],
            [
                [
                    -2.28883,
                    -0.06901,
                    0.71109
                ],
                [
                    -0.03968,
                    -1.00598,
                    0.04372
                ],
                [
                    0.73538,
                    0.17182,
                    -1.63906
                ]
            ],
            [
                [
                    -1.37439,
                    0.5678,
                    -0.3933
                ],
                [
                    0.59753,
                    -1.92067,
                    0.59435
                ],
                [
                    -0.5165,
                    0.55095,
                    -1.63906
                ]
            ],
            [
                [
                    -1.27993,
                    -0.54271,
                    -0.31789
                ],
                [
                    -0.51368,
                    -2.0159,
                    -0.63753
                ],
                [
                    -0.21889,
                    -0.72277,
                    -1.63906
                ]
            ],
            [
                [
                    -2.28883,
                    0.06901,
                    -0.71109
                ],
                [
                    0.04022,
                    -1.006,
                    0.04382
                ],
                [
                    -0.73516,
                    0.17212,
                    -1.63922
                ]
            ],
            [
                [
                    -1.37439,
                    -0.5678,
                    0.3933
                ],
                [
                    -0.59731,
                    -1.92082,
                    0.59399
                ],
                [
                    0.51665,
                    0.55061,
                    -1.63922
                ]
            ],
            [
                [
                    -1.27993,
                    0.54271,
                    0.31789
                ],
                [
                    0.51379,
                    -2.01576,
                    -0.63848
                ],
                [
                    0.21852,
                    -0.72273,
                    -1.63922
                ]
            ],
            [
                [
                    -1.19998,
                    0.46326,
                    0.29642
                ],
                [
                    0.33639,
                    -1.93541,
                    -0.76163
                ],
                [
                    0.12776,
                    -0.77767,
                    -1.80133
                ]
            ],
            [
                [
                    -1.40512,
                    -0.45522,
                    0.51167
                ],
                [
                    -0.58176,
                    -1.73063,
                    0.63722
                ],
                [
                    0.6096,
                    0.49948,
                    -1.80133
                ]
            ],
            [
                [
                    -2.09801,
                    0.1817,
                    -0.80814
                ],
                [
                    0.05503,
                    -1.03736,
                    0.12467
                ],
                [
                    -0.73736,
                    0.27819,
                    -1.80133
                ]
            ],
            [
                [
                    -1.19998,
                    -0.46326,
                    -0.29642
                ],
                [
                    -0.33637,
                    -1.93542,
                    -0.76158
                ],
                [
                    -0.12788,
                    -0.77761,
                    -1.80138
                ]
            ],
            [
                [
                    -1.40512,
                    0.45522,
                    -0.51167
                ],
                [
                    0.58154,
                    -1.72977,
                    0.63742
                ],
                [
                    -0.60949,
                    0.49955,
                    -1.80138
                ]
            ],
            [
                [
                    -2.09801,
                    -0.1817,
                    0.80814
                ],
                [
                    -0.05501,
                    -1.03707,
                    0.1242
                ],
                [
                    0.73737,
                    0.27806,
                    -1.80138
                ]
            ]
        ]
    },
    "band_gap": 3.1856999999999998,
    "is_direct": false,
    "formula": "GaAsO4"
}