{
    "mp_id": "mp-3540",
    "nelements": 3,
    "nsites": 24,
    "elements": [
        "Li",
        "O",
        "Sn"
    ],
    "structure": {
        "@module": "pymatgen.core.structure",
        "@class": "Structure",
        "charge": null,
        "lattice": {
            "matrix": [
                [
                    2.64974186,
                    -4.60127265,
                    0.00029925
                ],
                [
                    2.64974186,
                    4.60127265,
                    0.00029925
                ],
                [
                    -1.79368627,
                    0.0,
                    9.84661276
                ]
            ],
            "a": 5.3096932127783845,
            "b": 5.3096932127783845,
            "c": 10.008650922106401,
            "alpha": 95.12788544840426,
            "beta": 95.12788544840426,
            "gamma": 120.12717047101866,
            "volume": 240.10838342671082
        },
        "sites": [
            {
                "species": [
                    {
                        "element": "Li",
                        "occu": 1
                    }
                ],
                "abc": [
                    0.68568265,
                    0.84186899,
                    0.50081173
                ],
                "xyz": [
                    3.1493183998637027,
                    0.7186559345456014,
                    4.9317562908039445
                ],
                "label": "Li",
                "properties": {}
            },
            {
                "species": [
                    {
                        "element": "Li",
                        "occu": 1
                    }
                ],
                "abc": [
                    0.15813101,
                    0.31431735,
                    0.99918827
                ],
                "xyz": [
                    -0.5403640848637035,
                    0.7186559345456011,
                    9.838761349196055
                ],
                "label": "Li",
                "properties": {}
            },
            {
                "species": [
                    {
                        "element": "Li",
                        "occu": 1
                    }
                ],
                "abc": [
                    0.31431735,
                    0.15813101,
                    0.49918827
                ],
                "xyz": [
                    0.35647905013629655,
                    -0.7186559345456011,
                    4.9154549691960545
                ],
                "label": "Li",
                "properties": {}
            },
            {
                "species": [
                    {
                        "element": "Li",
                        "occu": 1
                    }
                ],
                "abc": [
                    0.84186899,
                    0.68568265,
                    0.00081173
                ],
                "xyz": [
                    4.046161534863702,
                    -0.7186559345456014,
                    0.0084499108039448
                ],
                "label": "Li",
                "properties": {}
            },
            {
                "species": [
                    {
                        "element": "Li",
                        "occu": 1
                    }
                ],
                "abc": [
                    0.5,
                    0.0,
                    0.0
                ],
                "xyz": [
                    1.32487093,
                    -2.300636325,
                    0.000149625
                ],
                "label": "Li",
                "properties": {}
            },
            {
                "species": [
                    {
                        "element": "Li",
                        "occu": 1
                    }
                ],
                "abc": [
                    0.0,
                    0.5,
                    0.5
                ],
                "xyz": [
                    0.4280277949999999,
                    2.300636325,
                    4.923456004999999
                ],
                "label": "Li",
                "properties": {}
            },
            {
                "species": [
                    {
                        "element": "Li",
                        "occu": 1
                    }
                ],
                "abc": [
                    0.91497342,
                    0.08502658,
                    0.25
                ],
                "xyz": [
                    2.2013202924999997,
                    -3.8188116958459264,
                    2.4619524399999997
                ],
                "label": "Li",
                "properties": {}
            },
            {
                "species": [
                    {
                        "element": "Li",
                        "occu": 1
                    }
                ],
                "abc": [
                    0.08502658,
                    0.91497342,
                    0.75
                ],
                "xyz": [
                    1.3044771574999998,
                    3.8188116958459264,
                    7.38525882
                ],
                "label": "Li",
                "properties": {}
            },
            {
                "species": [
                    {
                        "element": "Sn",
                        "occu": 1
                    }
                ],
                "abc": [
                    0.41714541,
                    0.58285459,
                    0.75
                ],
                "xyz": [
                    1.3044771574999998,
                    0.7624731177879269,
                    7.38525882
                ],
                "label": "Sn",
                "properties": {}
            },
            {
                "species": [
                    {
                        "element": "Sn",
                        "occu": 1
                    }
                ],
                "abc": [
                    0.74970399,
                    0.25029601,
                    0.75
                ],
                "xyz": [
                    1.3044771574999998,
                    -2.2979122795657467,
                    7.38525882
                ],
                "label": "Sn",
                "properties": {}
            },
            {
                "species": [
                    {
                        "element": "Sn",
                        "occu": 1
                    }
                ],
                "abc": [
                    0.25029601,
                    0.74970399,
                    0.25
                ],
                "xyz": [
                    2.2013202924999997,
                    2.2979122795657467,
                    2.4619524399999997
                ],
                "label": "Sn",
                "properties": {}
            },
            {
                "species": [
                    {
                        "element": "Sn",
                        "occu": 1
                    }
                ],
                "abc": [
                    0.58285459,
                    0.41714541,
                    0.25
                ],
                "xyz": [
                    2.2013202924999997,
                    -0.7624731177879269,
                    2.4619524399999997
                ],
                "label": "Sn",
                "properties": {}
            },
            {
                "species": [
                    {
                        "element": "O",
                        "occu": 1
                    }
                ],
                "abc": [
                    0.77424336,
                    0.95798266,
                    0.87027104
                ],
                "xyz": [
                    3.028958580548576,
                    0.8454346158201447,
                    8.569740295758955
                ],
                "label": "O",
                "properties": {}
            },
            {
                "species": [
                    {
                        "element": "O",
                        "occu": 1
                    }
                ],
                "abc": [
                    0.60562684,
                    0.12370764,
                    0.36792435
                ],
                "xyz": [
                    1.272607246603658,
                    -2.21744163446988,
                    3.623026852767846
                ],
                "label": "O",
                "properties": {}
            },
            {
                "species": [
                    {
                        "element": "O",
                        "occu": 1
                    }
                ],
                "abc": [
                    0.04201734,
                    0.22575664,
                    0.62972896
                ],
                "xyz": [
                    -0.4200042655485765,
                    0.8454346158201451,
                    6.200777344241044
                ],
                "label": "O",
                "properties": {}
            },
            {
                "species": [
                    {
                        "element": "O",
                        "occu": 1
                    }
                ],
                "abc": [
                    0.22575664,
                    0.04201734,
                    0.12972896
                ],
                "xyz": [
                    0.4768388694514236,
                    -0.8454346158201451,
                    1.2774709642410447
                ],
                "label": "O",
                "properties": {}
            },
            {
                "species": [
                    {
                        "element": "O",
                        "occu": 1
                    }
                ],
                "abc": [
                    0.30530729,
                    0.47169271,
                    0.36791343
                ],
                "xyz": [
                    1.398928157280394,
                    0.765584682404763,
                    3.6229335916633665
                ],
                "label": "O",
                "properties": {}
            },
            {
                "species": [
                    {
                        "element": "O",
                        "occu": 1
                    }
                ],
                "abc": [
                    0.87629236,
                    0.39437316,
                    0.13207565
                ],
                "xyz": [
                    3.1300333383963417,
                    -2.2174416344698797,
                    1.3008780272321538
                ],
                "label": "O",
                "properties": {}
            },
            {
                "species": [
                    {
                        "element": "O",
                        "occu": 1
                    }
                ],
                "abc": [
                    0.39437316,
                    0.87629236,
                    0.63207565
                ],
                "xyz": [
                    2.2331902033963416,
                    2.2174416344698797,
                    6.224184407232154
                ],
                "label": "O",
                "properties": {}
            },
            {
                "species": [
                    {
                        "element": "O",
                        "occu": 1
                    }
                ],
                "abc": [
                    0.12370764,
                    0.60562684,
                    0.86792435
                ],
                "xyz": [
                    0.37576411160365786,
                    2.21744163446988,
                    8.546333232767847
                ],
                "label": "O",
                "properties": {}
            },
            {
                "species": [
                    {
                        "element": "O",
                        "occu": 1
                    }
                ],
                "abc": [
                    0.47169271,
                    0.30530729,
                    0.86791343
                ],
                "xyz": [
                    0.5020850222803939,
                    -0.765584682404763,
                    8.546239971663367
                ],
                "label": "O",
                "properties": {}
            },
            {
                "species": [
                    {
                        "element": "O",
                        "occu": 1
                    }
                ],
                "abc": [
                    0.52830729,
                    0.69469271,
                    0.13208657
                ],
                "xyz": [
                    3.0037124277196057,
                    0.765584682404763,
                    1.300971288336633
                ],
                "label": "O",
                "properties": {}
            },
            {
                "species": [
                    {
                        "element": "O",
                        "occu": 1
                    }
                ],
                "abc": [
                    0.69469271,
                    0.52830729,
                    0.63208657
                ],
                "xyz": [
                    2.1068692927196055,
                    -0.765584682404763,
                    6.224277668336633
                ],
                "label": "O",
                "properties": {}
            },
            {
                "species": [
                    {
                        "element": "O",
                        "occu": 1
                    }
                ],
                "abc": [
                    0.95798266,
                    0.77424336,
                    0.37027104
                ],
                "xyz": [
                    3.9258017155485763,
                    -0.8454346158201447,
                    3.646433915758955
                ],
                "label": "O",
                "properties": {}
            }
        ]
    },
    "spacegroup": {
        "source": "spglib",
        "symbol": "C2/c",
        "number": 15,
        "point_group": "2/m",
        "crystal_system": "monoclinic",
        "hall": "-C 2yc"
    },
    "dielectric": {
        "epsilon_ionic": [
            [
                16.51150023,
                0.0,
                -0.25017331
            ],
            [
                0.0,
                18.40349545,
                0.0
            ],
            [
                -0.25017331,
                0.0,
                10.8712164
            ]
        ],
        "epsilon_ionic_avg": 15.262070693333333,
        "epsilon_ionic_eig": [
            16.522574856661237,
            10.86014177333876,
            18.40349545
        ],
        "epsilon_electronic": [
            [
                3.74392599,
                0.0,
                -0.00470922
            ],
            [
                0.0,
                3.75213154,
                0.0
            ],
            [
                -0.00470755,
                0.0,
                3.33162132
            ]
        ],
        "epsilon_electronic_avg": 3.6092262833333333,
        "epsilon_electronic_eig": [
            3.743979751210959,
            3.331567558789041,
            3.75213154
        ]
    },
    "phonon": {
        "lowest_freq": -0.05987079178403824,
        "frequency": [
            -0.05987079178403824,
            -0.029133175803071516,
            -0.02729920302329816,
            1.8176567016956622,
            1.9615820942774893,
            3.2769994891210112,
            3.298907950151109,
            3.617935114235089,
            3.7292427774570784,
            3.8392157887293963,
            4.997456426120418,
            5.024233262466399,
            5.170190935720187,
            6.353887476017472,
            6.531844534293671,
            6.657794117114774,
            6.792353915360457,
            6.916429350160628,
            7.041576644210262,
            7.067877817325324,
            7.152011037405505,
            7.307082316799277,
            7.380087355408697,
            7.400018291698398,
            7.46493929030998,
            7.541528704159089,
            7.9708418472335305,
            8.046701398598417,
            8.159407093312298,
            8.177972544726277,
            8.321121708540444,
            8.509559765405061,
            8.683388499525938,
            8.991416348258088,
            9.19392337416557,
            10.306971499983007,
            10.313896147656653,
            10.507011340700133,
            10.58613361596443,
            10.71171778644887,
            10.811326571876961,
            10.836382866558749,
            11.11942647904081,
            11.125172067807368,
            11.261886080712014,
            11.35375921253532,
            11.8716160554589,
            13.053240370926535,
            13.112391983656694,
            13.216121755948441,
            13.240283178882121,
            13.818305775957661,
            13.940161412206713,
            13.94627215308848,
            14.04660994825368,
            14.377271260138489,
            14.546329374952924,
            14.744575778826716,
            14.76124978770158,
            14.899061488434224,
            15.704202555557382,
            15.71777726408362,
            16.252341435292546,
            16.31879524123174,
            16.398917475945858,
            16.490178280688625,
            16.535552076501602,
            17.109686446166055,
            17.43747951751155,
            17.455967832077974,
            18.22529716892955,
            18.93848724720242
        ]
    },
    "born_effective_charge": {
        "avg_abs_trace": 1.9704425,
        "tensors": [
            [
                [
                    1.04878,
                    0.06507,
                    -0.00447
                ],
                [
                    0.06398,
                    1.12048,
                    -0.00489
                ],
                [
                    0.00397,
                    0.00801,
                    1.41274
                ]
            ],
            [
                [
                    1.04878,
                    -0.06507,
                    -0.00447
                ],
                [
                    -0.06398,
                    1.12048,
                    0.00489
                ],
                [
                    0.00397,
                    -0.00801,
                    1.41274
                ]
            ],
            [
                [
                    1.04878,
                    0.06507,
                    -0.00447
                ],
                [
                    0.06398,
                    1.12047,
                    -0.00489
                ],
                [
                    0.00397,
                    0.00801,
                    1.41274
                ]
            ],
            [
                [
                    1.04878,
                    -0.06507,
                    -0.00447
                ],
                [
                    -0.06398,
                    1.12047,
                    0.00489
                ],
                [
                    0.00397,
                    -0.00801,
                    1.41274
                ]
            ],
            [
                [
                    1.15198,
                    0.13137,
                    0.01706
                ],
                [
                    0.13059,
                    1.00136,
                    -0.02883
                ],
                [
                    0.0003,
                    0.00163,
                    1.41305
                ]
            ],
            [
                [
                    1.15198,
                    -0.13137,
                    0.01706
                ],
                [
                    -0.13059,
                    1.00136,
                    0.02883
                ],
                [
                    0.0003,
                    -0.00163,
                    1.41305
                ]
            ],
            [
                [
                    1.17724,
                    -0.0,
                    0.00697
                ],
                [
                    -0.0,
                    1.17389,
                    0.0
                ],
                [
                    0.00135,
                    -0.0,
                    0.69273
                ]
            ],
            [
                [
                    1.17724,
                    0.0,
                    0.00697
                ],
                [
                    -0.0,
                    1.17389,
                    0.0
                ],
                [
                    0.00135,
                    0.0,
                    0.69273
                ]
            ],
            [
                [
                    4.03394,
                    0.0,
                    -0.01724
                ],
                [
                    -0.0,
                    4.04197,
                    0.0
                ],
                [
                    -0.00373,
                    -1e-05,
                    2.76898
                ]
            ],
            [
                [
                    4.03254,
                    -0.0,
                    0.00816
                ],
                [
                    -0.0,
                    4.04698,
                    0.0
                ],
                [
                    -0.00265,
                    0.0,
                    2.76931
                ]
            ],
            [
                [
                    4.03254,
                    0.0,
                    0.00816
                ],
                [
                    -0.0,
                    4.04699,
                    0.0
                ],
                [
                    -0.00265,
                    -0.0,
                    2.76931
                ]
            ],
            [
                [
                    4.03394,
                    -0.0,
                    -0.01724
                ],
                [
                    -0.0,
                    4.04196,
                    0.0
                ],
                [
                    -0.00373,
                    1e-05,
                    2.76898
                ]
            ],
            [
                [
                    -2.26907,
                    -0.29502,
                    -0.0819
                ],
                [
                    -0.29396,
                    -1.92873,
                    0.13467
                ],
                [
                    -0.11589,
                    0.18988,
                    -1.76492
                ]
            ],
            [
                [
                    -2.24528,
                    -0.28693,
                    -0.06346
                ],
                [
                    -0.31447,
                    -1.90831,
                    0.11157
                ],
                [
                    -0.10425,
                    0.17533,
                    -1.72977
                ]
            ],
            [
                [
                    -2.26908,
                    0.29501,
                    -0.08188
                ],
                [
                    0.29396,
                    -1.92873,
                    -0.13467
                ],
                [
                    -0.11591,
                    -0.18985,
                    -1.76494
                ]
            ],
            [
                [
                    -2.26908,
                    -0.29501,
                    -0.08188
                ],
                [
                    -0.29391,
                    -1.92876,
                    0.13468
                ],
                [
                    -0.11591,
                    0.18985,
                    -1.76494
                ]
            ],
            [
                [
                    -1.73228,
                    -0.01912,
                    0.14235
                ],
                [
                    0.01018,
                    -2.4155,
                    0.00683
                ],
                [
                    0.21856,
                    0.00517,
                    -1.74006
                ]
            ],
            [
                [
                    -2.24527,
                    0.28692,
                    -0.06346
                ],
                [
                    0.31447,
                    -1.90831,
                    -0.11157
                ],
                [
                    -0.10431,
                    -0.17528,
                    -1.72977
                ]
            ],
            [
                [
                    -2.24527,
                    -0.28692,
                    -0.06346
                ],
                [
                    -0.31441,
                    -1.90836,
                    0.11153
                ],
                [
                    -0.10431,
                    0.17528,
                    -1.72977
                ]
            ],
            [
                [
                    -2.24528,
                    0.28693,
                    -0.06346
                ],
                [
                    0.31441,
                    -1.90836,
                    -0.11153
                ],
                [
                    -0.10425,
                    -0.17533,
                    -1.72977
                ]
            ],
            [
                [
                    -1.73228,
                    0.01912,
                    0.14235
                ],
                [
                    -0.01003,
                    -2.41549,
                    -0.0068
                ],
                [
                    0.21856,
                    -0.00517,
                    -1.74006
                ]
            ],
            [
                [
                    -1.73229,
                    0.01912,
                    0.14232
                ],
                [
                    -0.01018,
                    -2.4155,
                    -0.00683
                ],
                [
                    0.21857,
                    -0.00518,
                    -1.74009
                ]
            ],
            [
                [
                    -1.73229,
                    -0.01912,
                    0.14232
                ],
                [
                    0.01003,
                    -2.41549,
                    0.0068
                ],
                [
                    0.21857,
                    0.00518,
                    -1.74009
                ]
            ],
            [
                [
                    -2.26907,
                    0.29502,
                    -0.0819
                ],
                [
                    0.29391,
                    -1.92876,
                    -0.13468
                ],
                [
                    -0.11589,
                    -0.18988,
                    -1.76492
                ]
            ]
        ]
    },
    "band_gap": 3.2903,
    "is_direct": false,
    "formula": "Li2SnO3"
}