{
    "mp_id": "mp-3642",
    "nelements": 3,
    "nsites": 8,
    "elements": [
        "Cu",
        "O",
        "Sc"
    ],
    "structure": {
        "@module": "pymatgen.core.structure",
        "@class": "Structure",
        "charge": null,
        "lattice": {
            "matrix": [
                [
                    3.18777991,
                    0.0,
                    0.0
                ],
                [
                    -1.59388995,
                    2.76069794,
                    0.0
                ],
                [
                    0.0,
                    0.0,
                    11.27795979
                ]
            ],
            "a": 3.18777991,
            "b": 3.1877795232153754,
            "c": 11.27795979,
            "alpha": 90.0,
            "beta": 90.0,
            "gamma": 120.00000390991136,
            "volume": 99.25165615555005
        },
        "sites": [
            {
                "species": [
                    {
                        "element": "Sc",
                        "occu": 1
                    }
                ],
                "abc": [
                    0.0,
                    0.0,
                    0.0
                ],
                "xyz": [
                    0.0,
                    0.0,
                    0.0
                ],
                "label": "Sc",
                "properties": {}
            },
            {
                "species": [
                    {
                        "element": "Sc",
                        "occu": 1
                    }
                ],
                "abc": [
                    0.0,
                    0.0,
                    0.5
                ],
                "xyz": [
                    0.0,
                    0.0,
                    5.638979895
                ],
                "label": "Sc",
                "properties": {}
            },
            {
                "species": [
                    {
                        "element": "Cu",
                        "occu": 1
                    }
                ],
                "abc": [
                    0.666667,
                    0.333333,
                    0.75
                ],
                "xyz": [
                    1.59389155055662,
                    0.92023172643402,
                    8.458469842500001
                ],
                "label": "Cu",
                "properties": {}
            },
            {
                "species": [
                    {
                        "element": "Cu",
                        "occu": 1
                    }
                ],
                "abc": [
                    0.333333,
                    0.666667,
                    0.25
                ],
                "xyz": [
                    -1.5905566199680976e-06,
                    1.84046621356598,
                    2.8194899475
                ],
                "label": "Cu",
                "properties": {}
            },
            {
                "species": [
                    {
                        "element": "O",
                        "occu": 1
                    }
                ],
                "abc": [
                    0.333333,
                    0.666667,
                    0.41001593
                ],
                "xyz": [
                    -1.5905566199680976e-06,
                    1.84046621356598,
                    4.624143171799455
                ],
                "label": "O",
                "properties": {}
            },
            {
                "species": [
                    {
                        "element": "O",
                        "occu": 1
                    }
                ],
                "abc": [
                    0.666667,
                    0.333333,
                    0.91001593
                ],
                "xyz": [
                    1.59389155055662,
                    0.92023172643402,
                    10.263123066799455
                ],
                "label": "O",
                "properties": {}
            },
            {
                "species": [
                    {
                        "element": "O",
                        "occu": 1
                    }
                ],
                "abc": [
                    0.333333,
                    0.666667,
                    0.08998407
                ],
                "xyz": [
                    -1.5905566199680976e-06,
                    1.84046621356598,
                    1.0148367232005453
                ],
                "label": "O",
                "properties": {}
            },
            {
                "species": [
                    {
                        "element": "O",
                        "occu": 1
                    }
                ],
                "abc": [
                    0.666667,
                    0.333333,
                    0.58998407
                ],
                "xyz": [
                    1.59389155055662,
                    0.92023172643402,
                    6.653816618200545
                ],
                "label": "O",
                "properties": {}
            }
        ]
    },
    "spacegroup": {
        "source": "spglib",
        "symbol": "P6_3/mmc",
        "number": 194,
        "point_group": "6/mmm",
        "crystal_system": "hexagonal",
        "hall": "-P 6c 2c"
    },
    "dielectric": {
        "epsilon_ionic": [
            [
                9.13707186,
                -3e-08,
                -0.0
            ],
            [
                -3e-08,
                9.1359254,
                -0.0
            ],
            [
                -0.0,
                -0.0,
                2.64156782
            ]
        ],
        "epsilon_ionic_avg": 6.971521693333333,
        "epsilon_ionic_eig": [
            9.137071860000786,
            9.135925399999214,
            2.64156782
        ],
        "epsilon_electronic": [
            [
                5.64322678,
                0.0,
                0.0
            ],
            [
                0.0,
                5.64322489,
                0.0
            ],
            [
                0.0,
                0.0,
                5.0383003
            ]
        ],
        "epsilon_electronic_avg": 5.441583990000001,
        "epsilon_electronic_eig": [
            5.64322678,
            5.64322489,
            5.0383003
        ]
    },
    "phonon": {
        "lowest_freq": -0.05090672588749781,
        "frequency": [
            -0.05090672588749781,
            -0.05090671724580526,
            -0.011707767123593744,
            1.2565880795469124,
            1.2565882896015232,
            3.1338573222909694,
            3.133857844803827,
            4.000461246840185,
            4.00046191580835,
            7.100504010590678,
            8.058275753015815,
            10.410982507325173,
            10.410984244491496,
            10.52344935900281,
            10.92561071695374,
            10.925612540065469,
            11.88636791456048,
            11.886369909014205,
            12.36838686857431,
            12.368388943380989,
            19.17225319463395,
            20.937730394054736,
            21.290190560763683,
            22.265998020497747
        ]
    },
    "born_effective_charge": {
        "avg_abs_trace": 2.3436320833333335,
        "tensors": [
            [
                [
                    4.47666,
                    0.0,
                    0.0
                ],
                [
                    0.0,
                    4.47647,
                    -0.00011
                ],
                [
                    0.0,
                    0.0,
                    3.11217
                ]
            ],
            [
                [
                    4.47666,
                    0.0,
                    0.0
                ],
                [
                    0.0,
                    4.47647,
                    0.00011
                ],
                [
                    -0.0,
                    0.0,
                    3.11217
                ]
            ],
            [
                [
                    0.38464,
                    0.00011,
                    0.0
                ],
                [
                    -0.0,
                    0.38435,
                    -0.0
                ],
                [
                    -0.0,
                    0.0,
                    1.22752
                ]
            ],
            [
                [
                    0.38464,
                    -0.00011,
                    0.0
                ],
                [
                    -0.0,
                    0.38432,
                    -0.0
                ],
                [
                    0.0,
                    0.0,
                    1.22752
                ]
            ],
            [
                [
                    -2.43065,
                    -0.00047,
                    -5e-05
                ],
                [
                    0.0,
                    -2.43031,
                    -0.00018
                ],
                [
                    -0.0,
                    0.0,
                    -2.16979
                ]
            ],
            [
                [
                    -2.43065,
                    0.00047,
                    -5e-05
                ],
                [
                    0.0,
                    -2.43049,
                    -0.00011
                ],
                [
                    0.0,
                    -0.0,
                    -2.16979
                ]
            ],
            [
                [
                    -2.43065,
                    -0.00047,
                    5e-05
                ],
                [
                    0.0,
                    -2.43031,
                    0.00018
                ],
                [
                    0.0,
                    -0.0,
                    -2.1699
                ]
            ],
            [
                [
                    -2.43065,
                    0.00047,
                    5e-05
                ],
                [
                    0.0,
                    -2.43049,
                    0.00011
                ],
                [
                    0.0,
                    0.0,
                    -2.1699
                ]
            ]
        ]
    },
    "band_gap": 2.7691999999999997,
    "is_direct": false,
    "formula": "ScCuO2"
}