{
    "mp_id": "mp-31488",
    "nelements": 3,
    "nsites": 32,
    "elements": [
        "Li",
        "Nb",
        "O"
    ],
    "structure": {
        "@module": "pymatgen.core.structure",
        "@class": "Structure",
        "charge": null,
        "lattice": {
            "matrix": [
                [
                    -4.22802828,
                    4.22802828,
                    4.22802828
                ],
                [
                    4.22802828,
                    -4.22802828,
                    4.22802828
                ],
                [
                    4.22802828,
                    4.22802828,
                    -4.22802828
                ]
            ],
            "a": 7.323159796798051,
            "b": 7.323159796798051,
            "c": 7.323159796798051,
            "alpha": 109.47122063449069,
            "beta": 109.47122063449069,
            "gamma": 109.47122063449069,
            "volume": 302.3247078425069
        },
        "sites": [
            {
                "species": [
                    {
                        "element": "Li",
                        "occu": 1
                    }
                ],
                "abc": [
                    0.24202777,
                    0.72551859,
                    0.72551859
                ],
                "xyz": [
                    5.111725976266114,
                    1.023300256105336,
                    1.023300256105336
                ],
                "label": "Li",
                "properties": {}
            },
            {
                "species": [
                    {
                        "element": "Li",
                        "occu": 1
                    }
                ],
                "abc": [
                    0.0,
                    0.51650918,
                    0.27448141
                ],
                "xyz": [
                    3.3443305837338855,
                    -1.023300256105336,
                    1.023300256105336
                ],
                "label": "Li",
                "properties": {}
            },
            {
                "species": [
                    {
                        "element": "Li",
                        "occu": 1
                    }
                ],
                "abc": [
                    0.48349082,
                    0.75797223,
                    0.48349082
                ],
                "xyz": [
                    3.2047280238946647,
                    0.8836976962661143,
                    3.2047280238946647
                ],
                "label": "Li",
                "properties": {}
            },
            {
                "species": [
                    {
                        "element": "Li",
                        "occu": 1
                    }
                ],
                "abc": [
                    0.51650918,
                    0.0,
                    0.27448141
                ],
                "xyz": [
                    -1.023300256105336,
                    3.3443305837338855,
                    1.023300256105336
                ],
                "label": "Li",
                "properties": {}
            },
            {
                "species": [
                    {
                        "element": "Li",
                        "occu": 1
                    }
                ],
                "abc": [
                    0.27448141,
                    0.51650918,
                    0.0
                ],
                "xyz": [
                    1.023300256105336,
                    -1.023300256105336,
                    3.3443305837338855
                ],
                "label": "Li",
                "properties": {}
            },
            {
                "species": [
                    {
                        "element": "Li",
                        "occu": 1
                    }
                ],
                "abc": [
                    0.72551859,
                    0.24202777,
                    0.72551859
                ],
                "xyz": [
                    1.023300256105336,
                    5.111725976266114,
                    1.023300256105336
                ],
                "label": "Li",
                "properties": {}
            },
            {
                "species": [
                    {
                        "element": "Li",
                        "occu": 1
                    }
                ],
                "abc": [
                    0.72551859,
                    0.72551859,
                    0.24202777
                ],
                "xyz": [
                    1.0233002561053357,
                    1.0233002561053357,
                    5.111725976266114
                ],
                "label": "Li",
                "properties": {}
            },
            {
                "species": [
                    {
                        "element": "Li",
                        "occu": 1
                    }
                ],
                "abc": [
                    0.51650918,
                    0.27448141,
                    0.0
                ],
                "xyz": [
                    -1.023300256105336,
                    1.023300256105336,
                    3.3443305837338855
                ],
                "label": "Li",
                "properties": {}
            },
            {
                "species": [
                    {
                        "element": "Li",
                        "occu": 1
                    }
                ],
                "abc": [
                    0.0,
                    0.27448141,
                    0.51650918
                ],
                "xyz": [
                    3.3443305837338855,
                    1.023300256105336,
                    -1.023300256105336
                ],
                "label": "Li",
                "properties": {}
            },
            {
                "species": [
                    {
                        "element": "Li",
                        "occu": 1
                    }
                ],
                "abc": [
                    0.48349082,
                    0.48349082,
                    0.75797223
                ],
                "xyz": [
                    3.2047280238946647,
                    3.2047280238946647,
                    0.8836976962661143
                ],
                "label": "Li",
                "properties": {}
            },
            {
                "species": [
                    {
                        "element": "Li",
                        "occu": 1
                    }
                ],
                "abc": [
                    0.75797223,
                    0.48349082,
                    0.48349082
                ],
                "xyz": [
                    0.8836976962661143,
                    3.2047280238946647,
                    3.2047280238946647
                ],
                "label": "Li",
                "properties": {}
            },
            {
                "species": [
                    {
                        "element": "Li",
                        "occu": 1
                    }
                ],
                "abc": [
                    0.27448141,
                    0.0,
                    0.51650918
                ],
                "xyz": [
                    1.023300256105336,
                    3.3443305837338855,
                    -1.023300256105336
                ],
                "label": "Li",
                "properties": {}
            },
            {
                "species": [
                    {
                        "element": "Nb",
                        "occu": 1
                    }
                ],
                "abc": [
                    0.2804638,
                    0.2804638,
                    0.2804638
                ],
                "xyz": [
                    1.1858088779162639,
                    1.1858088779162639,
                    1.1858088779162639
                ],
                "label": "Nb",
                "properties": {}
            },
            {
                "species": [
                    {
                        "element": "Nb",
                        "occu": 1
                    }
                ],
                "abc": [
                    0.0,
                    0.0,
                    0.7195362
                ],
                "xyz": [
                    3.042219402083736,
                    3.042219402083736,
                    -3.042219402083736
                ],
                "label": "Nb",
                "properties": {}
            },
            {
                "species": [
                    {
                        "element": "Nb",
                        "occu": 1
                    }
                ],
                "abc": [
                    0.0,
                    0.7195362,
                    0.0
                ],
                "xyz": [
                    3.042219402083736,
                    -3.042219402083736,
                    3.042219402083736
                ],
                "label": "Nb",
                "properties": {}
            },
            {
                "species": [
                    {
                        "element": "Nb",
                        "occu": 1
                    }
                ],
                "abc": [
                    0.7195362,
                    0.0,
                    0.0
                ],
                "xyz": [
                    -3.042219402083736,
                    3.042219402083736,
                    3.042219402083736
                ],
                "label": "Nb",
                "properties": {}
            },
            {
                "species": [
                    {
                        "element": "O",
                        "occu": 1
                    }
                ],
                "abc": [
                    0.48835183,
                    0.48835183,
                    0.24634848
                ],
                "xyz": [
                    1.0415683401750144,
                    1.0415683401750144,
                    3.087962355484491
                ],
                "label": "O",
                "properties": {}
            },
            {
                "species": [
                    {
                        "element": "O",
                        "occu": 1
                    }
                ],
                "abc": [
                    0.0,
                    0.75799664,
                    0.51164817
                ],
                "xyz": [
                    5.368094162235227,
                    -1.0415682978947318,
                    1.0415682978947318
                ],
                "label": "O",
                "properties": {}
            },
            {
                "species": [
                    {
                        "element": "O",
                        "occu": 1
                    }
                ],
                "abc": [
                    0.0,
                    0.0,
                    0.22757791
                ],
                "xyz": [
                    0.9622058393832948,
                    0.9622058393832948,
                    -0.9622058393832948
                ],
                "label": "O",
                "properties": {}
            },
            {
                "species": [
                    {
                        "element": "O",
                        "occu": 1
                    }
                ],
                "abc": [
                    0.24200336,
                    0.24200336,
                    0.75365152
                ],
                "xyz": [
                    3.186459939824986,
                    3.186459939824986,
                    -1.1400658399549441
                ],
                "label": "O",
                "properties": {}
            },
            {
                "species": [
                    {
                        "element": "O",
                        "occu": 1
                    }
                ],
                "abc": [
                    0.24634848,
                    0.48835183,
                    0.48835183
                ],
                "xyz": [
                    3.087962355484491,
                    1.0415683401750144,
                    1.0415683401750147
                ],
                "label": "O",
                "properties": {}
            },
            {
                "species": [
                    {
                        "element": "O",
                        "occu": 1
                    }
                ],
                "abc": [
                    0.75365152,
                    0.24200336,
                    0.24200336
                ],
                "xyz": [
                    -1.140065839954944,
                    3.186459939824986,
                    3.186459939824986
                ],
                "label": "O",
                "properties": {}
            },
            {
                "species": [
                    {
                        "element": "O",
                        "occu": 1
                    }
                ],
                "abc": [
                    0.75799664,
                    0.0,
                    0.51164817
                ],
                "xyz": [
                    -1.0415682978947318,
                    5.368094162235227,
                    1.0415682978947318
                ],
                "label": "O",
                "properties": {}
            },
            {
                "species": [
                    {
                        "element": "O",
                        "occu": 1
                    }
                ],
                "abc": [
                    0.77242209,
                    0.77242209,
                    0.77242209
                ],
                "xyz": [
                    3.2658224406167053,
                    3.2658224406167053,
                    3.2658224406167053
                ],
                "label": "O",
                "properties": {}
            },
            {
                "species": [
                    {
                        "element": "O",
                        "occu": 1
                    }
                ],
                "abc": [
                    0.75799664,
                    0.51164817,
                    0.0
                ],
                "xyz": [
                    -1.0415682978947318,
                    1.0415682978947318,
                    5.368094162235227
                ],
                "label": "O",
                "properties": {}
            },
            {
                "species": [
                    {
                        "element": "O",
                        "occu": 1
                    }
                ],
                "abc": [
                    0.0,
                    0.22757791,
                    0.0
                ],
                "xyz": [
                    0.9622058393832948,
                    -0.9622058393832948,
                    0.9622058393832948
                ],
                "label": "O",
                "properties": {}
            },
            {
                "species": [
                    {
                        "element": "O",
                        "occu": 1
                    }
                ],
                "abc": [
                    0.0,
                    0.51164817,
                    0.75799664
                ],
                "xyz": [
                    5.368094162235227,
                    1.0415682978947318,
                    -1.0415682978947318
                ],
                "label": "O",
                "properties": {}
            },
            {
                "species": [
                    {
                        "element": "O",
                        "occu": 1
                    }
                ],
                "abc": [
                    0.51164817,
                    0.0,
                    0.75799664
                ],
                "xyz": [
                    1.0415682978947318,
                    5.368094162235227,
                    -1.0415682978947318
                ],
                "label": "O",
                "properties": {}
            },
            {
                "species": [
                    {
                        "element": "O",
                        "occu": 1
                    }
                ],
                "abc": [
                    0.51164817,
                    0.75799664,
                    0.0
                ],
                "xyz": [
                    1.0415682978947318,
                    -1.0415682978947318,
                    5.368094162235227
                ],
                "label": "O",
                "properties": {}
            },
            {
                "species": [
                    {
                        "element": "O",
                        "occu": 1
                    }
                ],
                "abc": [
                    0.24200336,
                    0.75365152,
                    0.24200336
                ],
                "xyz": [
                    3.186459939824986,
                    -1.140065839954944,
                    3.186459939824986
                ],
                "label": "O",
                "properties": {}
            },
            {
                "species": [
                    {
                        "element": "O",
                        "occu": 1
                    }
                ],
                "abc": [
                    0.48835183,
                    0.24634848,
                    0.48835183
                ],
                "xyz": [
                    1.0415683401750144,
                    3.087962355484491,
                    1.0415683401750147
                ],
                "label": "O",
                "properties": {}
            },
            {
                "species": [
                    {
                        "element": "O",
                        "occu": 1
                    }
                ],
                "abc": [
                    0.22757791,
                    0.0,
                    0.0
                ],
                "xyz": [
                    -0.9622058393832948,
                    0.9622058393832948,
                    0.9622058393832948
                ],
                "label": "O",
                "properties": {}
            }
        ]
    },
    "spacegroup": {
        "source": "spglib",
        "symbol": "I-43m",
        "number": 217,
        "point_group": "-43m",
        "crystal_system": "cubic",
        "hall": "I -4 2 3"
    },
    "dielectric": {
        "epsilon_ionic": [
            [
                12.29348069,
                0.0,
                0.0
            ],
            [
                0.0,
                12.29300958,
                1e-08
            ],
            [
                0.0,
                1e-08,
                12.29282268
            ]
        ],
        "epsilon_ionic_avg": 12.293104316666666,
        "epsilon_ionic_eig": [
            12.292822679999466,
            12.293009580000534,
            12.29348069
        ],
        "epsilon_electronic": [
            [
                3.94767433,
                -0.0,
                -0.0
            ],
            [
                -0.0,
                3.94767433,
                0.0
            ],
            [
                -0.0,
                -0.0,
                3.94767433
            ]
        ],
        "epsilon_electronic_avg": 3.94767433,
        "epsilon_electronic_eig": [
            3.94767433,
            3.94767433,
            3.94767433
        ]
    },
    "phonon": {
        "lowest_freq": -0.023732726128885915,
        "frequency": [
            -0.023732726128885915,
            -0.023732726128885915,
            -0.023732726128885915,
            3.73932513937313,
            3.73932513937313,
            3.73932513937313,
            4.720913310597411,
            4.720913310597411,
            5.621728573755329,
            5.621728573755329,
            5.621728573755329,
            5.79479854282017,
            5.79479854282017,
            5.79479854282017,
            6.169894214035352,
            7.394203509318085,
            7.394203509318085,
            7.394203509318085,
            7.76251737167113,
            7.76251737167113,
            7.76251737167113,
            7.923587696146631,
            8.082759169500845,
            8.082759169500845,
            8.082759169500845,
            8.0971673628195,
            8.0971673628195,
            8.0971673628195,
            8.276195544172257,
            8.506909010489366,
            8.506909010489366,
            8.506909010489366,
            8.741615942884668,
            8.741615942884668,
            8.741615942884668,
            8.756821056020785,
            8.756821056020785,
            8.950403791563476,
            8.950403791563476,
            8.950403791563476,
            9.27341419209875,
            9.27341419209875,
            9.27341419209875,
            9.325932369446116,
            9.325932369446116,
            9.325932369446116,
            9.534402075461527,
            9.534402075461527,
            9.640614558674985,
            9.640614558674985,
            9.640614558674985,
            10.056633521004462,
            10.056633521004462,
            10.48741228684835,
            10.568739731812077,
            10.568739731812077,
            10.568739731812077,
            10.986402224546296,
            10.986402224546296,
            10.986402224546296,
            11.154897130500684,
            11.725326034578313,
            11.725326034578313,
            12.198329218601325,
            12.198329218601325,
            12.198329218601325,
            12.562777195429438,
            12.562777195429438,
            12.562777195429438,
            12.749536995579971,
            12.749536995579971,
            12.749536995579971,
            13.2900938892548,
            13.2900938892548,
            13.678294239460545,
            14.313864953622833,
            14.313864953622833,
            14.313864953622833,
            14.916592991069594,
            14.916592991069594,
            15.296588782435496,
            16.7114240721419,
            16.7114240721419,
            16.7114240721419,
            19.86563127863415,
            19.86563127863415,
            19.86563127863415,
            21.4983180915726,
            21.4983180915726,
            21.4983180915726,
            21.93948026866565,
            21.93948026866565,
            22.337226248601404,
            22.337226248601404,
            22.337226248601404,
            23.842679923399192
        ]
    },
    "born_effective_charge": {
        "avg_abs_trace": 2.0786264583333334,
        "tensors": [
            [
                [
                    1.41856,
                    -0.24453,
                    -0.24453
                ],
                [
                    -0.06881,
                    1.05929,
                    0.24656
                ],
                [
                    -0.06885,
                    0.24649,
                    1.05926
                ]
            ],
            [
                [
                    1.41845,
                    -0.24471,
                    0.24471
                ],
                [
                    -0.06883,
                    1.05928,
                    -0.24648
                ],
                [
                    0.06885,
                    -0.24649,
                    1.05926
                ]
            ],
            [
                [
                    1.05928,
                    0.06881,
                    0.24669
                ],
                [
                    0.24458,
                    1.41839,
                    0.24458
                ],
                [
                    0.24656,
                    0.06882,
                    1.05926
                ]
            ],
            [
                [
                    1.05928,
                    -0.06881,
                    -0.24669
                ],
                [
                    -0.2445,
                    1.41845,
                    0.2445
                ],
                [
                    -0.24649,
                    0.06885,
                    1.05926
                ]
            ],
            [
                [
                    1.0593,
                    -0.2465,
                    0.06888
                ],
                [
                    -0.24648,
                    1.05928,
                    -0.06883
                ],
                [
                    0.24456,
                    -0.24456,
                    1.4184
                ]
            ],
            [
                [
                    1.0593,
                    -0.06888,
                    0.2465
                ],
                [
                    -0.24458,
                    1.41839,
                    -0.24458
                ],
                [
                    0.24649,
                    -0.06885,
                    1.05926
                ]
            ],
            [
                [
                    1.0593,
                    0.2465,
                    -0.06888
                ],
                [
                    0.24656,
                    1.05929,
                    -0.06881
                ],
                [
                    -0.24453,
                    -0.24453,
                    1.41844
                ]
            ],
            [
                [
                    1.05928,
                    -0.24669,
                    -0.06881
                ],
                [
                    -0.24656,
                    1.05929,
                    0.06881
                ],
                [
                    -0.24456,
                    0.24456,
                    1.4184
                ]
            ],
            [
                [
                    1.41845,
                    0.24471,
                    -0.24471
                ],
                [
                    0.06881,
                    1.05929,
                    -0.24656
                ],
                [
                    -0.06882,
                    -0.24656,
                    1.05926
                ]
            ],
            [
                [
                    1.05928,
                    0.24669,
                    0.06881
                ],
                [
                    0.24648,
                    1.05928,
                    0.06883
                ],
                [
                    0.24453,
                    0.24453,
                    1.41844
                ]
            ],
            [
                [
                    1.41856,
                    0.24453,
                    0.24453
                ],
                [
                    0.06883,
                    1.05928,
                    0.24648
                ],
                [
                    0.06882,
                    0.24656,
                    1.05926
                ]
            ],
            [
                [
                    1.0593,
                    0.06888,
                    -0.2465
                ],
                [
                    0.2445,
                    1.41845,
                    -0.2445
                ],
                [
                    -0.24656,
                    -0.06882,
                    1.05926
                ]
            ],
            [
                [
                    4.77708,
                    0.38097,
                    0.38097
                ],
                [
                    0.38065,
                    4.77765,
                    0.38065
                ],
                [
                    0.38089,
                    0.38089,
                    4.77761
                ]
            ],
            [
                [
                    4.77776,
                    0.3807,
                    -0.3807
                ],
                [
                    0.38092,
                    4.77735,
                    -0.38092
                ],
                [
                    -0.38089,
                    -0.38089,
                    4.77761
                ]
            ],
            [
                [
                    4.77776,
                    -0.3807,
                    0.3807
                ],
                [
                    -0.38065,
                    4.77765,
                    -0.38065
                ],
                [
                    0.38075,
                    -0.38075,
                    4.77755
                ]
            ],
            [
                [
                    4.77708,
                    -0.38097,
                    -0.38097
                ],
                [
                    -0.38092,
                    4.77735,
                    0.38092
                ],
                [
                    -0.38075,
                    0.38075,
                    4.77755
                ]
            ],
            [
                [
                    -1.36613,
                    -0.06388,
                    -0.05841
                ],
                [
                    -0.06386,
                    -1.36618,
                    -0.05826
                ],
                [
                    0.08478,
                    0.08478,
                    -3.30661
                ]
            ],
            [
                [
                    -3.30677,
                    0.08466,
                    -0.08466
                ],
                [
                    -0.05822,
                    -1.36607,
                    0.06381
                ],
                [
                    0.05808,
                    0.06389,
                    -1.36613
                ]
            ],
            [
                [
                    -2.27584,
                    0.20045,
                    -0.20045
                ],
                [
                    0.20062,
                    -2.27595,
                    -0.20062
                ],
                [
                    -0.20057,
                    -0.20057,
                    -2.27578
                ]
            ],
            [
                [
                    -1.36621,
                    -0.0639,
                    0.05808
                ],
                [
                    -0.06381,
                    -1.36607,
                    0.05822
                ],
                [
                    -0.08478,
                    -0.08478,
                    -3.30661
                ]
            ],
            [
                [
                    -3.30603,
                    0.08449,
                    0.08449
                ],
                [
                    -0.05826,
                    -1.36618,
                    -0.06386
                ],
                [
                    -0.05808,
                    -0.06389,
                    -1.36613
                ]
            ],
            [
                [
                    -3.30603,
                    -0.08449,
                    -0.08449
                ],
                [
                    0.05822,
                    -1.36607,
                    -0.06381
                ],
                [
                    0.05848,
                    -0.0635,
                    -1.36614
                ]
            ],
            [
                [
                    -1.36621,
                    -0.05808,
                    0.0639
                ],
                [
                    0.08464,
                    -3.30639,
                    -0.08464
                ],
                [
                    0.06389,
                    0.05808,
                    -1.36613
                ]
            ],
            [
                [
                    -2.2757,
                    0.20032,
                    0.20032
                ],
                [
                    0.20061,
                    -2.27595,
                    0.20061
                ],
                [
                    0.20057,
                    0.20057,
                    -2.27578
                ]
            ],
            [
                [
                    -1.36621,
                    0.0639,
                    -0.05808
                ],
                [
                    0.06386,
                    -1.36618,
                    0.05826
                ],
                [
                    0.08475,
                    -0.08475,
                    -3.30622
                ]
            ],
            [
                [
                    -2.27584,
                    -0.20045,
                    0.20045
                ],
                [
                    -0.20061,
                    -2.27595,
                    -0.20061
                ],
                [
                    0.20061,
                    -0.20061,
                    -2.27591
                ]
            ],
            [
                [
                    -3.30677,
                    -0.08466,
                    0.08466
                ],
                [
                    0.05826,
                    -1.36618,
                    0.06386
                ],
                [
                    -0.05848,
                    0.0635,
                    -1.36614
                ]
            ],
            [
                [
                    -1.36613,
                    0.05841,
                    0.06388
                ],
                [
                    -0.08464,
                    -3.30639,
                    0.08464
                ],
                [
                    0.0635,
                    -0.05848,
                    -1.36614
                ]
            ],
            [
                [
                    -1.36613,
                    0.06388,
                    0.05841
                ],
                [
                    0.06381,
                    -1.36607,
                    -0.05822
                ],
                [
                    -0.08475,
                    0.08475,
                    -3.30622
                ]
            ],
            [
                [
                    -1.36621,
                    0.05808,
                    -0.0639
                ],
                [
                    -0.08485,
                    -3.30617,
                    -0.08485
                ],
                [
                    -0.0635,
                    0.05848,
                    -1.36614
                ]
            ],
            [
                [
                    -1.36613,
                    -0.05841,
                    -0.06388
                ],
                [
                    0.08485,
                    -3.30617,
                    0.08485
                ],
                [
                    -0.06389,
                    -0.05808,
                    -1.36613
                ]
            ],
            [
                [
                    -2.2757,
                    -0.20032,
                    -0.20032
                ],
                [
                    -0.20062,
                    -2.27595,
                    0.20062
                ],
                [
                    -0.20061,
                    0.20061,
                    -2.27591
                ]
            ]
        ]
    },
    "band_gap": 3.8713000000000006,
    "is_direct": false,
    "formula": "Li3NbO4"
}