{
    "mp_id": "mp-35647",
    "nelements": 3,
    "nsites": 14,
    "elements": [
        "O",
        "Pt",
        "Zn"
    ],
    "structure": {
        "@module": "pymatgen.core.structure",
        "@class": "Structure",
        "charge": null,
        "lattice": {
            "matrix": [
                [
                    -2.89982395,
                    3.02286949,
                    4.26691552
                ],
                [
                    2.89982395,
                    -3.02286949,
                    4.26691552
                ],
                [
                    2.89982395,
                    3.02286949,
                    -4.26691552
                ]
            ],
            "a": 5.979405233748866,
            "b": 5.979405233748866,
            "c": 5.979405233748866,
            "alpha": 121.97916601095244,
            "beta": 119.26467936667116,
            "gamma": 88.94251069569624,
            "volume": 149.61153040195967
        },
        "sites": [
            {
                "species": [
                    {
                        "element": "Zn",
                        "occu": 1
                    }
                ],
                "abc": [
                    0.39854512,
                    0.14854512,
                    0.25
                ],
                "xyz": [
                    0.0,
                    1.5114347449999999,
                    1.2676589558965248
                ],
                "label": "Zn",
                "properties": {}
            },
            {
                "species": [
                    {
                        "element": "Zn",
                        "occu": 1
                    }
                ],
                "abc": [
                    0.60145488,
                    0.85145488,
                    0.75
                ],
                "xyz": [
                    2.89982395,
                    1.511434745,
                    2.999256564103476
                ],
                "label": "Zn",
                "properties": {}
            },
            {
                "species": [
                    {
                        "element": "Zn",
                        "occu": 1
                    }
                ],
                "abc": [
                    0.0,
                    0.5,
                    0.0
                ],
                "xyz": [
                    1.449911975,
                    -1.511434745,
                    2.13345776
                ],
                "label": "Zn",
                "properties": {}
            },
            {
                "species": [
                    {
                        "element": "Zn",
                        "occu": 1
                    }
                ],
                "abc": [
                    0.0,
                    0.0,
                    0.5
                ],
                "xyz": [
                    1.449911975,
                    1.511434745,
                    -2.13345776
                ],
                "label": "Zn",
                "properties": {}
            },
            {
                "species": [
                    {
                        "element": "Pt",
                        "occu": 1
                    }
                ],
                "abc": [
                    0.5,
                    0.5,
                    0.0
                ],
                "xyz": [
                    0.0,
                    0.0,
                    4.26691552
                ],
                "label": "Pt",
                "properties": {}
            },
            {
                "species": [
                    {
                        "element": "Pt",
                        "occu": 1
                    }
                ],
                "abc": [
                    0.0,
                    0.5,
                    0.5
                ],
                "xyz": [
                    2.89982395,
                    0.0,
                    0.0
                ],
                "label": "Pt",
                "properties": {}
            },
            {
                "species": [
                    {
                        "element": "O",
                        "occu": 1
                    }
                ],
                "abc": [
                    0.75358706,
                    0.73490327,
                    0.01868378
                ],
                "xyz": [
                    -2.899823917795752e-08,
                    0.11295728726843926,
                    6.271540379592657
                ],
                "label": "O",
                "properties": {}
            },
            {
                "species": [
                    {
                        "element": "O",
                        "occu": 1
                    }
                ],
                "abc": [
                    0.21621949,
                    0.73490327,
                    0.48131622
                ],
                "xyz": [
                    2.89982395,
                    -0.11295725703974457,
                    2.0046248169235006
                ],
                "label": "O",
                "properties": {}
            },
            {
                "species": [
                    {
                        "element": "O",
                        "occu": 1
                    }
                ],
                "abc": [
                    0.74996871,
                    0.26975312,
                    0.01978441
                ],
                "xyz": [
                    -1.335169363090761,
                    1.511434745,
                    4.266648496426759
                ],
                "label": "O",
                "properties": {}
            },
            {
                "species": [
                    {
                        "element": "O",
                        "occu": 1
                    }
                ],
                "abc": [
                    0.74996871,
                    0.7301843,
                    0.48021559
                ],
                "xyz": [
                    1.3351693630907608,
                    1.511434745,
                    4.266648496426759
                ],
                "label": "O",
                "properties": {}
            },
            {
                "species": [
                    {
                        "element": "O",
                        "occu": 1
                    }
                ],
                "abc": [
                    0.25003129,
                    0.2698157,
                    0.51978441
                ],
                "xyz": [
                    1.564654586909239,
                    1.5114347449999999,
                    0.0002670235732415982
                ],
                "label": "O",
                "properties": {}
            },
            {
                "species": [
                    {
                        "element": "O",
                        "occu": 1
                    }
                ],
                "abc": [
                    0.25003129,
                    0.73024688,
                    0.98021559
                ],
                "xyz": [
                    4.2349933130907615,
                    1.5114347450000003,
                    0.0002670235732420423
                ],
                "label": "O",
                "properties": {}
            },
            {
                "species": [
                    {
                        "element": "O",
                        "occu": 1
                    }
                ],
                "abc": [
                    0.78378051,
                    0.26509673,
                    0.51868378
                ],
                "xyz": [
                    -2.220446049250313e-16,
                    3.135826747039745,
                    2.2622907030765
                ],
                "label": "O",
                "properties": {}
            },
            {
                "species": [
                    {
                        "element": "O",
                        "occu": 1
                    }
                ],
                "abc": [
                    0.24641294,
                    0.26509673,
                    0.98131622
                ],
                "xyz": [
                    2.8998239789982394,
                    2.9099122027315607,
                    -2.0046248595926563
                ],
                "label": "O",
                "properties": {}
            }
        ]
    },
    "spacegroup": {
        "source": "spglib",
        "symbol": "Imma",
        "number": 74,
        "point_group": "mmm",
        "crystal_system": "orthorhombic",
        "hall": "-I 2b 2"
    },
    "dielectric": {
        "epsilon_ionic": [
            [
                6.11382173,
                -0.0,
                -0.0
            ],
            [
                -0.0,
                3.84247558,
                1e-08
            ],
            [
                -0.0,
                1e-08,
                4.70182931
            ]
        ],
        "epsilon_ionic_avg": 4.886042206666667,
        "epsilon_ionic_eig": [
            4.70182931,
            3.84247558,
            6.11382173
        ],
        "epsilon_electronic": [
            [
                4.65605248,
                0.0,
                0.0
            ],
            [
                0.0,
                6.01559668,
                -0.0
            ],
            [
                0.0,
                0.0,
                5.2623423
            ]
        ],
        "epsilon_electronic_avg": 5.311330486666667,
        "epsilon_electronic_eig": [
            4.65605248,
            6.01559668,
            5.2623423
        ]
    },
    "phonon": {
        "lowest_freq": -0.07885978167126291,
        "frequency": [
            -0.07885978167126291,
            -0.022256600857000323,
            -0.015291775815953009,
            3.060536132210627,
            3.9743102996326387,
            4.010506309869399,
            4.150308460426417,
            4.493870116003072,
            4.563159399876975,
            4.785892721133809,
            4.788220897045987,
            4.916428581823094,
            4.936870686270744,
            5.770133235972949,
            6.224355852565467,
            7.643221641377444,
            7.739525392621573,
            7.848594088859675,
            8.640323645635254,
            8.741691695387546,
            9.543012941209968,
            11.303617860230501,
            12.324282630072117,
            13.122836083515113,
            13.221582779746555,
            14.298668950889997,
            14.356652004468502,
            14.448239485143233,
            15.580286054195083,
            16.061839504834406,
            16.308703356189458,
            16.433169804258984,
            16.63079410687653,
            16.654545284048925,
            17.23163882868278,
            17.463154440406413,
            17.558336353595358,
            17.64800920409029,
            17.91334062986311,
            18.44879192942839,
            18.91102639259791,
            19.15853876026225
        ]
    },
    "born_effective_charge": {
        "avg_abs_trace": 2.00511619047619,
        "tensors": [
            [
                [
                    2.60952,
                    -0.0,
                    3e-05
                ],
                [
                    0.0,
                    1.89422,
                    8e-05
                ],
                [
                    -0.0,
                    -0.0,
                    2.37362
                ]
            ],
            [
                [
                    2.60952,
                    -0.0,
                    -3e-05
                ],
                [
                    -0.0,
                    1.89422,
                    -8e-05
                ],
                [
                    -0.0,
                    0.0,
                    2.37354
                ]
            ],
            [
                [
                    2.23537,
                    -0.0,
                    -0.78399
                ],
                [
                    0.0,
                    2.2159,
                    0.0
                ],
                [
                    -1.07966,
                    0.0,
                    2.14468
                ]
            ],
            [
                [
                    2.23537,
                    -0.0,
                    0.78399
                ],
                [
                    0.0,
                    2.2159,
                    0.0
                ],
                [
                    1.07966,
                    0.0,
                    2.14468
                ]
            ],
            [
                [
                    1.38957,
                    -0.0,
                    0.0
                ],
                [
                    0.0,
                    3.84137,
                    0.04835
                ],
                [
                    -0.0,
                    0.09763,
                    2.3495
                ]
            ],
            [
                [
                    1.38957,
                    -0.0,
                    0.0
                ],
                [
                    0.0,
                    3.84137,
                    -0.04835
                ],
                [
                    -0.0,
                    -0.09763,
                    2.3495
                ]
            ],
            [
                [
                    -1.3277,
                    -0.0,
                    -0.0
                ],
                [
                    0.0,
                    -1.61326,
                    0.10819
                ],
                [
                    -0.0,
                    0.09151,
                    -2.35839
                ]
            ],
            [
                [
                    -1.3277,
                    0.0,
                    -0.0
                ],
                [
                    0.0,
                    -1.61327,
                    -0.10792
                ],
                [
                    -0.0,
                    -0.09151,
                    -2.35839
                ]
            ],
            [
                [
                    -1.78964,
                    0.0,
                    -0.16591
                ],
                [
                    0.00017,
                    -2.36248,
                    1e-05
                ],
                [
                    -0.1987,
                    0.0,
                    -1.07541
                ]
            ],
            [
                [
                    -1.78943,
                    0.0,
                    0.16587
                ],
                [
                    -0.00017,
                    -2.36248,
                    1e-05
                ],
                [
                    0.1987,
                    -0.0,
                    -1.07541
                ]
            ],
            [
                [
                    -1.78964,
                    0.0,
                    0.16591
                ],
                [
                    0.00017,
                    -2.36248,
                    -1e-05
                ],
                [
                    0.19883,
                    0.0,
                    -1.07541
                ]
            ],
            [
                [
                    -1.78943,
                    -0.0,
                    -0.16587
                ],
                [
                    -0.00017,
                    -2.36248,
                    -1e-05
                ],
                [
                    -0.19883,
                    -0.0,
                    -1.07541
                ]
            ],
            [
                [
                    -1.3277,
                    -0.0,
                    0.0
                ],
                [
                    0.0,
                    -1.61326,
                    -0.10819
                ],
                [
                    -0.0,
                    -0.0914,
                    -2.35856
                ]
            ],
            [
                [
                    -1.3277,
                    0.0,
                    0.0
                ],
                [
                    0.0,
                    -1.61327,
                    0.10792
                ],
                [
                    -0.0,
                    0.0914,
                    -2.35856
                ]
            ]
        ]
    },
    "band_gap": 1.0233999999999996,
    "is_direct": false,
    "formula": "Zn2PtO4"
}