{
    "mp_id": "mp-3858",
    "nelements": 3,
    "nsites": 20,
    "elements": [
        "Na",
        "O",
        "Ta"
    ],
    "structure": {
        "@module": "pymatgen.core.structure",
        "@class": "Structure",
        "charge": null,
        "lattice": {
            "matrix": [
                [
                    5.53261117,
                    0.0,
                    0.0
                ],
                [
                    0.0,
                    7.77018124,
                    0.0
                ],
                [
                    0.0,
                    0.0,
                    5.44768657
                ]
            ],
            "a": 5.53261117,
            "b": 7.77018124,
            "c": 5.44768657,
            "alpha": 90.0,
            "beta": 90.0,
            "gamma": 90.0,
            "volume": 234.19273084332184
        },
        "sites": [
            {
                "species": [
                    {
                        "element": "Na",
                        "occu": 1
                    }
                ],
                "abc": [
                    0.02871507,
                    0.75,
                    0.00562361
                ],
                "xyz": [
                    0.15886931702933188,
                    5.8276359300000005,
                    0.030635664671917702
                ],
                "label": "Na",
                "properties": {}
            },
            {
                "species": [
                    {
                        "element": "Na",
                        "occu": 1
                    }
                ],
                "abc": [
                    0.97128493,
                    0.25,
                    0.99437639
                ],
                "xyz": [
                    5.373741852970668,
                    1.94254531,
                    5.417050905328082
                ],
                "label": "Na",
                "properties": {}
            },
            {
                "species": [
                    {
                        "element": "Na",
                        "occu": 1
                    }
                ],
                "abc": [
                    0.52871507,
                    0.75,
                    0.49437639
                ],
                "xyz": [
                    2.925174902029332,
                    5.8276359300000005,
                    2.6932076203280824
                ],
                "label": "Na",
                "properties": {}
            },
            {
                "species": [
                    {
                        "element": "Na",
                        "occu": 1
                    }
                ],
                "abc": [
                    0.47128493,
                    0.25,
                    0.50562361
                ],
                "xyz": [
                    2.607436267970668,
                    1.94254531,
                    2.7544789496719178
                ],
                "label": "Na",
                "properties": {}
            },
            {
                "species": [
                    {
                        "element": "Ta",
                        "occu": 1
                    }
                ],
                "abc": [
                    0.0,
                    0.5,
                    0.5
                ],
                "xyz": [
                    0.0,
                    3.88509062,
                    2.723843285
                ],
                "label": "Ta",
                "properties": {}
            },
            {
                "species": [
                    {
                        "element": "Ta",
                        "occu": 1
                    }
                ],
                "abc": [
                    0.0,
                    0.0,
                    0.5
                ],
                "xyz": [
                    0.0,
                    0.0,
                    2.723843285
                ],
                "label": "Ta",
                "properties": {}
            },
            {
                "species": [
                    {
                        "element": "Ta",
                        "occu": 1
                    }
                ],
                "abc": [
                    0.5,
                    0.5,
                    0.0
                ],
                "xyz": [
                    2.766305585,
                    3.88509062,
                    0.0
                ],
                "label": "Ta",
                "properties": {}
            },
            {
                "species": [
                    {
                        "element": "Ta",
                        "occu": 1
                    }
                ],
                "abc": [
                    0.5,
                    0.0,
                    0.0
                ],
                "xyz": [
                    2.766305585,
                    0.0,
                    0.0
                ],
                "label": "Ta",
                "properties": {}
            },
            {
                "species": [
                    {
                        "element": "O",
                        "occu": 1
                    }
                ],
                "abc": [
                    0.21003472,
                    0.46051025,
                    0.79132311
                ],
                "xyz": [
                    1.1620404379598224,
                    3.5782481053777104,
                    4.310880278877633
                ],
                "label": "O",
                "properties": {}
            },
            {
                "species": [
                    {
                        "element": "O",
                        "occu": 1
                    }
                ],
                "abc": [
                    0.78996528,
                    0.96051025,
                    0.20867689
                ],
                "xyz": [
                    4.370570732040178,
                    7.46333872537771,
                    1.1368062911223673
                ],
                "label": "O",
                "properties": {}
            },
            {
                "species": [
                    {
                        "element": "O",
                        "occu": 1
                    }
                ],
                "abc": [
                    0.71003472,
                    0.46051025,
                    0.70867689
                ],
                "xyz": [
                    3.9283460229598224,
                    3.5782481053777104,
                    3.8606495761223676
                ],
                "label": "O",
                "properties": {}
            },
            {
                "species": [
                    {
                        "element": "O",
                        "occu": 1
                    }
                ],
                "abc": [
                    0.28996528,
                    0.96051025,
                    0.29132311
                ],
                "xyz": [
                    1.6042651470401776,
                    7.46333872537771,
                    1.5870369938776328
                ],
                "label": "O",
                "properties": {}
            },
            {
                "species": [
                    {
                        "element": "O",
                        "occu": 1
                    }
                ],
                "abc": [
                    0.21003472,
                    0.03948975,
                    0.79132311
                ],
                "xyz": [
                    1.1620404379598224,
                    0.30684251462229,
                    4.310880278877633
                ],
                "label": "O",
                "properties": {}
            },
            {
                "species": [
                    {
                        "element": "O",
                        "occu": 1
                    }
                ],
                "abc": [
                    0.78996528,
                    0.53948975,
                    0.20867689
                ],
                "xyz": [
                    4.370570732040178,
                    4.19193313462229,
                    1.1368062911223673
                ],
                "label": "O",
                "properties": {}
            },
            {
                "species": [
                    {
                        "element": "O",
                        "occu": 1
                    }
                ],
                "abc": [
                    0.71003472,
                    0.03948975,
                    0.70867689
                ],
                "xyz": [
                    3.9283460229598224,
                    0.30684251462229,
                    3.8606495761223676
                ],
                "label": "O",
                "properties": {}
            },
            {
                "species": [
                    {
                        "element": "O",
                        "occu": 1
                    }
                ],
                "abc": [
                    0.28996528,
                    0.53948975,
                    0.29132311
                ],
                "xyz": [
                    1.6042651470401776,
                    4.19193313462229,
                    1.5870369938776328
                ],
                "label": "O",
                "properties": {}
            },
            {
                "species": [
                    {
                        "element": "O",
                        "occu": 1
                    }
                ],
                "abc": [
                    0.48277785,
                    0.75,
                    0.92318822
                ],
                "xyz": [
                    2.6710221255385846,
                    5.8276359300000005,
                    5.029240067676206
                ],
                "label": "O",
                "properties": {}
            },
            {
                "species": [
                    {
                        "element": "O",
                        "occu": 1
                    }
                ],
                "abc": [
                    0.51722215,
                    0.25,
                    0.07681178
                ],
                "xyz": [
                    2.861589044461416,
                    1.94254531,
                    0.4184465023237946
                ],
                "label": "O",
                "properties": {}
            },
            {
                "species": [
                    {
                        "element": "O",
                        "occu": 1
                    }
                ],
                "abc": [
                    0.98277785,
                    0.75,
                    0.57681178
                ],
                "xyz": [
                    5.437327710538584,
                    5.8276359300000005,
                    3.1422897873237945
                ],
                "label": "O",
                "properties": {}
            },
            {
                "species": [
                    {
                        "element": "O",
                        "occu": 1
                    }
                ],
                "abc": [
                    0.01722215,
                    0.25,
                    0.42318822
                ],
                "xyz": [
                    0.09528345946141549,
                    1.94254531,
                    2.3053967826762056
                ],
                "label": "O",
                "properties": {}
            }
        ]
    },
    "spacegroup": {
        "source": "spglib",
        "symbol": "Pnma",
        "number": 62,
        "point_group": "mmm",
        "crystal_system": "orthorhombic",
        "hall": "-P 2ac 2n"
    },
    "dielectric": {
        "epsilon_ionic": [
            [
                37.43707982,
                -0.0,
                2e-08
            ],
            [
                -0.0,
                34.57544406,
                2e-08
            ],
            [
                2e-08,
                2e-08,
                31.43243095
            ]
        ],
        "epsilon_ionic_avg": 34.48165161,
        "epsilon_ionic_eig": [
            37.43707982,
            31.43243095,
            34.57544406
        ],
        "epsilon_electronic": [
            [
                4.85506462,
                0.0,
                0.0
            ],
            [
                0.0,
                4.81323354,
                0.0
            ],
            [
                0.0,
                0.0,
                4.76912256
            ]
        ],
        "epsilon_electronic_avg": 4.812473573333333,
        "epsilon_electronic_eig": [
            4.85506462,
            4.81323354,
            4.76912256
        ]
    },
    "phonon": {
        "lowest_freq": -0.14594418136252407,
        "frequency": [
            -0.14594418136252407,
            -0.12010801065062654,
            -0.06268988877228694,
            2.337233783189018,
            2.3473821034685933,
            2.8689914976208413,
            3.3062536206620448,
            3.8422351351655744,
            4.018016214577081,
            4.060926770236438,
            4.475803916724477,
            4.476687140506704,
            4.6457783861022,
            4.842653232810163,
            4.891669358934872,
            4.996764838458528,
            5.0991885503589085,
            5.36547355521974,
            5.639330477988093,
            5.691417207702173,
            5.772355865907364,
            5.823831904894299,
            5.977378044666576,
            6.245104068443456,
            6.3661749397529634,
            6.47808551518793,
            6.5257792571611155,
            6.716662259490566,
            7.165364422245236,
            7.462342790596773,
            7.6356712095522985,
            7.750277920035951,
            8.099822886448703,
            9.33431626933701,
            9.56795281016792,
            9.771554340235319,
            9.819009889805406,
            9.841352510620949,
            10.004449368418467,
            10.055334316895674,
            10.40349479867332,
            11.405915675795608,
            12.223334342468155,
            12.592601694337748,
            13.008506854542278,
            13.2423417136662,
            13.357731070223632,
            13.451771867488517,
            16.654283925937943,
            16.789665172374995,
            17.242713287051668,
            17.34631352438941,
            17.551594697425823,
            17.73887218299616,
            18.405246455192223,
            18.481711576071383,
            18.884026730991412,
            25.399385153388323,
            26.266014782818694,
            27.074446947327665
        ]
    },
    "born_effective_charge": {
        "avg_abs_trace": 3.551681,
        "tensors": [
            [
                [
                    1.05592,
                    -0.0,
                    -0.05985
                ],
                [
                    -1e-05,
                    1.06098,
                    5e-05
                ],
                [
                    -0.03339,
                    0.0,
                    1.04157
                ]
            ],
            [
                [
                    1.05593,
                    -0.0,
                    -0.0598
                ],
                [
                    1e-05,
                    1.06098,
                    -5e-05
                ],
                [
                    -0.03339,
                    0.0,
                    1.04161
                ]
            ],
            [
                [
                    1.05592,
                    -0.0,
                    0.05985
                ],
                [
                    -1e-05,
                    1.06098,
                    -5e-05
                ],
                [
                    0.03339,
                    0.0,
                    1.04161
                ]
            ],
            [
                [
                    1.05593,
                    -0.0,
                    0.0598
                ],
                [
                    1e-05,
                    1.06098,
                    5e-05
                ],
                [
                    0.03339,
                    0.0,
                    1.04157
                ]
            ],
            [
                [
                    7.89883,
                    -0.00066,
                    0.77912
                ],
                [
                    -0.23851,
                    7.82905,
                    0.98763
                ],
                [
                    -0.77286,
                    -1.05723,
                    7.75123
                ]
            ],
            [
                [
                    7.89883,
                    0.00066,
                    0.77912
                ],
                [
                    0.23851,
                    7.82905,
                    -0.98763
                ],
                [
                    -0.77286,
                    1.05723,
                    7.75123
                ]
            ],
            [
                [
                    7.89883,
                    -0.00066,
                    -0.77912
                ],
                [
                    -0.23851,
                    7.82905,
                    -0.98763
                ],
                [
                    0.77286,
                    1.05723,
                    7.75123
                ]
            ],
            [
                [
                    7.89883,
                    0.00066,
                    -0.77912
                ],
                [
                    0.23851,
                    7.82905,
                    0.98763
                ],
                [
                    0.77286,
                    -1.05723,
                    7.75123
                ]
            ],
            [
                [
                    -3.74999,
                    -0.02874,
                    -2.21778
                ],
                [
                    -0.01863,
                    -1.49932,
                    0.01802
                ],
                [
                    -2.16783,
                    0.01782,
                    -3.63369
                ]
            ],
            [
                [
                    -3.75009,
                    0.02884,
                    -2.21759
                ],
                [
                    0.01863,
                    -1.49932,
                    -0.01802
                ],
                [
                    -2.16797,
                    -0.01731,
                    -3.6336
                ]
            ],
            [
                [
                    -3.74999,
                    -0.02874,
                    2.21778
                ],
                [
                    -0.01863,
                    -1.49932,
                    -0.01802
                ],
                [
                    2.16797,
                    -0.01731,
                    -3.6336
                ]
            ],
            [
                [
                    -3.75009,
                    0.02884,
                    2.21759
                ],
                [
                    0.01863,
                    -1.49932,
                    0.01802
                ],
                [
                    2.16783,
                    0.01782,
                    -3.63369
                ]
            ],
            [
                [
                    -3.74999,
                    0.02874,
                    -2.21778
                ],
                [
                    0.01864,
                    -1.49937,
                    -0.01797
                ],
                [
                    -2.16783,
                    -0.01782,
                    -3.63369
                ]
            ],
            [
                [
                    -3.75009,
                    -0.02884,
                    -2.21759
                ],
                [
                    -0.01864,
                    -1.49937,
                    0.01797
                ],
                [
                    -2.16797,
                    0.01731,
                    -3.6336
                ]
            ],
            [
                [
                    -3.74999,
                    0.02874,
                    2.21778
                ],
                [
                    0.01864,
                    -1.49937,
                    0.01797
                ],
                [
                    2.16797,
                    0.01731,
                    -3.6336
                ]
            ],
            [
                [
                    -3.75009,
                    -0.02884,
                    2.21759
                ],
                [
                    -0.01864,
                    -1.49937,
                    -0.01797
                ],
                [
                    2.16783,
                    -0.01782,
                    -3.63369
                ]
            ],
            [
                [
                    -1.45467,
                    -0.0,
                    0.10711
                ],
                [
                    4e-05,
                    -5.89134,
                    4e-05
                ],
                [
                    -0.12157,
                    0.0,
                    -1.52549
                ]
            ],
            [
                [
                    -1.45468,
                    -0.0,
                    0.10697
                ],
                [
                    -4e-05,
                    -5.89134,
                    -4e-05
                ],
                [
                    -0.1217,
                    0.0,
                    -1.52558
                ]
            ],
            [
                [
                    -1.45467,
                    -0.0,
                    -0.10711
                ],
                [
                    4e-05,
                    -5.89134,
                    -4e-05
                ],
                [
                    0.1217,
                    0.0,
                    -1.52558
                ]
            ],
            [
                [
                    -1.45468,
                    -0.0,
                    -0.10697
                ],
                [
                    -4e-05,
                    -5.89134,
                    4e-05
                ],
                [
                    0.12157,
                    0.0,
                    -1.52549
                ]
            ]
        ]
    },
    "band_gap": 3.1783,
    "is_direct": false,
    "formula": "NaTaO3"
}