{
    "mp_id": "mp-31250",
    "nelements": 3,
    "nsites": 20,
    "elements": [
        "B",
        "Bi",
        "O"
    ],
    "structure": {
        "@module": "pymatgen.core.structure",
        "@class": "Structure",
        "charge": null,
        "lattice": {
            "matrix": [
                [
                    6.56403455,
                    0.0,
                    0.00262827
                ],
                [
                    0.0,
                    5.03065327,
                    0.0
                ],
                [
                    -2.8834499,
                    0.0,
                    7.82617957
                ]
            ],
            "a": 6.5640350761857515,
            "b": 5.03065327,
            "c": 8.340465813591912,
            "alpha": 90.0,
            "beta": 110.20269523130365,
            "gamma": 90.0,
            "volume": 258.46938892007006
        },
        "sites": [
            {
                "species": [
                    {
                        "element": "Bi",
                        "occu": 1
                    }
                ],
                "abc": [
                    0.25992389,
                    0.25392275,
                    0.37780891
                ],
                "xyz": [
                    0.6167563305717905,
                    1.2773973126148923,
                    2.9574835229683387
                ],
                "label": "Bi",
                "properties": {}
            },
            {
                "species": [
                    {
                        "element": "Bi",
                        "occu": 1
                    }
                ],
                "abc": [
                    0.74007611,
                    0.75392275,
                    0.12219109
                ],
                "xyz": [
                    4.505553269428209,
                    3.7927239476148924,
                    0.958234532031661
                ],
                "label": "Bi",
                "properties": {}
            },
            {
                "species": [
                    {
                        "element": "Bi",
                        "occu": 1
                    }
                ],
                "abc": [
                    0.74007611,
                    0.74607725,
                    0.62219109
                ],
                "xyz": [
                    3.063828319428209,
                    3.753255957385108,
                    4.871324317031661
                ],
                "label": "Bi",
                "properties": {}
            },
            {
                "species": [
                    {
                        "element": "Bi",
                        "occu": 1
                    }
                ],
                "abc": [
                    0.25992389,
                    0.24607725,
                    0.87780891
                ],
                "xyz": [
                    -0.8249686194282098,
                    1.2379293223851076,
                    6.870573307968339
                ],
                "label": "Bi",
                "properties": {}
            },
            {
                "species": [
                    {
                        "element": "B",
                        "occu": 1
                    }
                ],
                "abc": [
                    0.7861097,
                    0.24386366,
                    0.38825178
                ],
                "xyz": [
                    4.040546674674313,
                    1.2267935186131682,
                    3.0405942571933533
                ],
                "label": "B",
                "properties": {}
            },
            {
                "species": [
                    {
                        "element": "B",
                        "occu": 1
                    }
                ],
                "abc": [
                    0.2138903,
                    0.74386366,
                    0.11174822
                ],
                "xyz": [
                    1.081762925325687,
                    3.7421201536131687,
                    0.8751237978066463
                ],
                "label": "B",
                "properties": {}
            },
            {
                "species": [
                    {
                        "element": "B",
                        "occu": 1
                    }
                ],
                "abc": [
                    0.2138903,
                    0.75613634,
                    0.61174822
                ],
                "xyz": [
                    -0.35996202467431293,
                    3.8038597513868315,
                    4.788213582806646
                ],
                "label": "B",
                "properties": {}
            },
            {
                "species": [
                    {
                        "element": "B",
                        "occu": 1
                    }
                ],
                "abc": [
                    0.7861097,
                    0.25613634,
                    0.88825178
                ],
                "xyz": [
                    2.5988217246743126,
                    1.2885331163868319,
                    6.953684042193354
                ],
                "label": "B",
                "properties": {}
            },
            {
                "species": [
                    {
                        "element": "O",
                        "occu": 1
                    }
                ],
                "abc": [
                    0.76214484,
                    0.52919542,
                    0.86641187
                ],
                "xyz": [
                    2.5044898419539092,
                    2.6621986700920233,
                    6.782697998618122
                ],
                "label": "O",
                "properties": {}
            },
            {
                "species": [
                    {
                        "element": "O",
                        "occu": 1
                    }
                ],
                "abc": [
                    0.23785516,
                    0.02919542,
                    0.63358813
                ],
                "xyz": [
                    -0.2656301419539091,
                    0.1468720350920234,
                    4.959199626381878
                ],
                "label": "O",
                "properties": {}
            },
            {
                "species": [
                    {
                        "element": "O",
                        "occu": 1
                    }
                ],
                "abc": [
                    0.23785516,
                    0.47080458,
                    0.13358813
                ],
                "xyz": [
                    1.176094808046091,
                    2.3684545999079765,
                    1.0461098413818772
                ],
                "label": "O",
                "properties": {}
            },
            {
                "species": [
                    {
                        "element": "O",
                        "occu": 1
                    }
                ],
                "abc": [
                    0.76214484,
                    0.97080458,
                    0.36641187
                ],
                "xyz": [
                    3.946214791953909,
                    4.8837812349079766,
                    2.8696082136181227
                ],
                "label": "O",
                "properties": {}
            },
            {
                "species": [
                    {
                        "element": "O",
                        "occu": 1
                    }
                ],
                "abc": [
                    0.9226062,
                    0.1140058,
                    0.82565389
                ],
                "xyz": [
                    3.6752873462890996,
                    0.573523650568966,
                    6.4641404640063005
                ],
                "label": "O",
                "properties": {}
            },
            {
                "species": [
                    {
                        "element": "O",
                        "occu": 1
                    }
                ],
                "abc": [
                    0.0773938,
                    0.6140058,
                    0.67434611
                ],
                "xyz": [
                    -1.436427646289099,
                    3.088850285568966,
                    5.277757160993699
                ],
                "label": "O",
                "properties": {}
            },
            {
                "species": [
                    {
                        "element": "O",
                        "occu": 1
                    }
                ],
                "abc": [
                    0.0773938,
                    0.8859942,
                    0.17434611
                ],
                "xyz": [
                    0.00529730371090098,
                    4.457129619431034,
                    1.3646673759936987
                ],
                "label": "O",
                "properties": {}
            },
            {
                "species": [
                    {
                        "element": "O",
                        "occu": 1
                    }
                ],
                "abc": [
                    0.9226062,
                    0.3859942,
                    0.32565389
                ],
                "xyz": [
                    5.117012296289099,
                    1.941802984431034,
                    2.5510506790063014
                ],
                "label": "O",
                "properties": {}
            },
            {
                "species": [
                    {
                        "element": "O",
                        "occu": 1
                    }
                ],
                "abc": [
                    0.66009568,
                    0.12872251,
                    0.96719015
                ],
                "xyz": [
                    1.5440465085272588,
                    0.6475583158541078,
                    7.571138701908109
                ],
                "label": "O",
                "properties": {}
            },
            {
                "species": [
                    {
                        "element": "O",
                        "occu": 1
                    }
                ],
                "abc": [
                    0.33990432,
                    0.62872251,
                    0.53280985
                ],
                "xyz": [
                    0.6948131914727407,
                    3.162884950854108,
                    4.170758923091891
                ],
                "label": "O",
                "properties": {}
            },
            {
                "species": [
                    {
                        "element": "O",
                        "occu": 1
                    }
                ],
                "abc": [
                    0.33990432,
                    0.87127749,
                    0.03280985
                ],
                "xyz": [
                    2.136538141472741,
                    4.383094954145893,
                    0.2576691380918909
                ],
                "label": "O",
                "properties": {}
            },
            {
                "species": [
                    {
                        "element": "O",
                        "occu": 1
                    }
                ],
                "abc": [
                    0.66009568,
                    0.37127749,
                    0.46719015
                ],
                "xyz": [
                    2.9857714585272586,
                    1.8677683191458923,
                    3.6580489169081094
                ],
                "label": "O",
                "properties": {}
            }
        ]
    },
    "spacegroup": {
        "source": "spglib",
        "symbol": "P2_1/c",
        "number": 14,
        "point_group": "2/m",
        "crystal_system": "monoclinic",
        "hall": "-P 2ybc"
    },
    "dielectric": {
        "epsilon_ionic": [
            [
                12.64518937,
                4e-08,
                1.98408123
            ],
            [
                4e-08,
                8.29566746,
                6e-08
            ],
            [
                1.98408123,
                6e-08,
                18.24854796
            ]
        ],
        "epsilon_ionic_avg": 13.063134929999995,
        "epsilon_ionic_eig": [
            18.879940933285358,
            12.013796396714628,
            8.295667459999999
        ],
        "epsilon_electronic": [
            [
                4.75325349,
                0.0,
                -0.25279632
            ],
            [
                0.0,
                4.71166084,
                0.0
            ],
            [
                -0.25279092,
                0.0,
                4.56533291
            ]
        ],
        "epsilon_electronic_avg": 4.6767490800000004,
        "epsilon_electronic_eig": [
            4.928984042266285,
            4.389602357733715,
            4.71166084
        ]
    },
    "phonon": {
        "lowest_freq": -0.02713538500209728,
        "frequency": [
            -0.02713538500209728,
            -0.017856318673251336,
            -0.013810527880045286,
            1.5885693421974862,
            1.7857221515959392,
            2.204365980628356,
            2.465825748240476,
            2.5911638183954855,
            2.8258176753939486,
            3.179337932248836,
            3.214594035429035,
            3.514346455835268,
            3.8307194730581298,
            4.191727605435053,
            4.208704087033556,
            4.2940561729936135,
            4.49678391750733,
            5.10376455244731,
            5.333233808439666,
            5.535294743228467,
            5.550199312066205,
            5.674404209831002,
            5.812255415381258,
            6.647235411954702,
            6.814297521276113,
            6.85322066927201,
            7.003453489926283,
            7.363664198757033,
            8.341538680656107,
            8.787722658886432,
            9.254109581104364,
            10.227320315309788,
            10.523225752713186,
            10.814338788516002,
            11.624909733253938,
            12.35340455540694,
            16.58706043288341,
            16.635003213243234,
            16.636707388636218,
            17.02584522551323,
            17.946394866905553,
            17.95053205068737,
            18.24263220063746,
            18.356157678391714,
            20.53141573807071,
            20.724913330633235,
            20.788854517881738,
            20.922062201165517,
            27.18922746620274,
            27.272876574404272,
            27.37920755068701,
            27.410316357972537,
            35.16544151582758,
            35.86062360827626,
            35.963737731734795,
            35.98542407169943,
            36.37282410759015,
            36.632396549774086,
            37.12592668406555,
            37.48879324323421
        ]
    },
    "born_effective_charge": {
        "avg_abs_trace": 2.71842,
        "tensors": [
            [
                [
                    4.45471,
                    0.72035,
                    0.08194
                ],
                [
                    0.50804,
                    4.15717,
                    0.03936
                ],
                [
                    0.08918,
                    -0.02962,
                    5.02255
                ]
            ],
            [
                [
                    4.45448,
                    -0.72051,
                    0.08198
                ],
                [
                    -0.50804,
                    4.15717,
                    -0.03936
                ],
                [
                    0.08961,
                    0.02995,
                    5.02237
                ]
            ],
            [
                [
                    4.45448,
                    0.72051,
                    0.08198
                ],
                [
                    0.50785,
                    4.15699,
                    0.03926
                ],
                [
                    0.08961,
                    -0.02995,
                    5.02237
                ]
            ],
            [
                [
                    4.45471,
                    -0.72035,
                    0.08194
                ],
                [
                    -0.50785,
                    4.15699,
                    -0.03926
                ],
                [
                    0.08918,
                    0.02962,
                    5.02255
                ]
            ],
            [
                [
                    2.67475,
                    0.33848,
                    -1.21835
                ],
                [
                    -0.0136,
                    3.22294,
                    0.3524
                ],
                [
                    -1.15767,
                    0.3778,
                    0.85642
                ]
            ],
            [
                [
                    2.67478,
                    -0.33871,
                    -1.21832
                ],
                [
                    0.0136,
                    3.22294,
                    -0.3524
                ],
                [
                    -1.15766,
                    -0.37727,
                    0.8563
                ]
            ],
            [
                [
                    2.67478,
                    0.33871,
                    -1.21832
                ],
                [
                    -0.01325,
                    3.22285,
                    0.35229
                ],
                [
                    -1.15766,
                    0.37727,
                    0.8563
                ]
            ],
            [
                [
                    2.67475,
                    -0.33848,
                    -1.21835
                ],
                [
                    0.01325,
                    3.22285,
                    -0.35229
                ],
                [
                    -1.15767,
                    -0.3778,
                    0.85642
                ]
            ],
            [
                [
                    -1.22482,
                    -0.01155,
                    0.83765
                ],
                [
                    0.09632,
                    -3.03519,
                    0.25899
                ],
                [
                    0.66397,
                    0.55741,
                    -2.82206
                ]
            ],
            [
                [
                    -1.22507,
                    0.01119,
                    0.83774
                ],
                [
                    -0.09632,
                    -3.03519,
                    -0.25899
                ],
                [
                    0.66449,
                    -0.55666,
                    -2.82241
                ]
            ],
            [
                [
                    -1.22507,
                    -0.01119,
                    0.83774
                ],
                [
                    0.09646,
                    -3.03561,
                    0.2584
                ],
                [
                    0.66449,
                    0.55666,
                    -2.82241
                ]
            ],
            [
                [
                    -1.22482,
                    0.01155,
                    0.83765
                ],
                [
                    -0.09646,
                    -3.03561,
                    -0.2584
                ],
                [
                    0.66397,
                    -0.55741,
                    -2.82206
                ]
            ],
            [
                [
                    -3.12524,
                    0.11754,
                    0.0709
                ],
                [
                    0.08248,
                    -1.97708,
                    -0.76326
                ],
                [
                    0.02467,
                    -0.72453,
                    -1.44259
                ]
            ],
            [
                [
                    -3.12547,
                    -0.11766,
                    0.0709
                ],
                [
                    -0.08248,
                    -1.97708,
                    0.76326
                ],
                [
                    0.0251,
                    0.7246,
                    -1.44256
                ]
            ],
            [
                [
                    -3.12547,
                    0.11766,
                    0.0709
                ],
                [
                    0.08279,
                    -1.977,
                    -0.76306
                ],
                [
                    0.0251,
                    -0.7246,
                    -1.44256
                ]
            ],
            [
                [
                    -3.12524,
                    -0.11754,
                    0.0709
                ],
                [
                    -0.08279,
                    -1.977,
                    0.76306
                ],
                [
                    0.02467,
                    0.72453,
                    -1.44259
                ]
            ],
            [
                [
                    -2.77903,
                    -0.08196,
                    0.22776
                ],
                [
                    -0.48376,
                    -2.36774,
                    0.94602
                ],
                [
                    0.37922,
                    1.10605,
                    -1.61414
                ]
            ],
            [
                [
                    -2.77908,
                    0.08185,
                    0.22779
                ],
                [
                    0.48376,
                    -2.36774,
                    -0.94602
                ],
                [
                    0.37908,
                    -1.10592,
                    -1.61388
                ]
            ],
            [
                [
                    -2.77908,
                    -0.08185,
                    0.22779
                ],
                [
                    -0.48407,
                    -2.36732,
                    0.94659
                ],
                [
                    0.37908,
                    1.10592,
                    -1.61388
                ]
            ],
            [
                [
                    -2.77903,
                    0.08196,
                    0.22776
                ],
                [
                    0.48407,
                    -2.36732,
                    -0.94659
                ],
                [
                    0.37922,
                    -1.10605,
                    -1.61414
                ]
            ]
        ]
    },
    "band_gap": 2.9595000000000002,
    "is_direct": false,
    "formula": "BiBO3"
}