{
    "mp_id": "mp-31419",
    "nelements": 3,
    "nsites": 18,
    "elements": [
        "La",
        "O",
        "Sb"
    ],
    "structure": {
        "@module": "pymatgen.core.structure",
        "@class": "Structure",
        "charge": null,
        "lattice": {
            "matrix": [
                [
                    3.654403,
                    2.10987072,
                    5.48740068
                ],
                [
                    -3.654403,
                    2.10987072,
                    5.48740068
                ],
                [
                    0.0,
                    -4.21974144,
                    5.48740068
                ]
            ],
            "a": 6.9222671116034515,
            "b": 6.9222671116034515,
            "c": 6.922267261766027,
            "alpha": 63.73004851864999,
            "beta": 63.73004851864999,
            "gamma": 63.73004513307599,
            "volume": 253.85762175545045
        },
        "sites": [
            {
                "species": [
                    {
                        "element": "La",
                        "occu": 1
                    }
                ],
                "abc": [
                    0.5,
                    0.5,
                    0.5
                ],
                "xyz": [
                    0.0,
                    0.0,
                    8.23110102
                ],
                "label": "La",
                "properties": {}
            },
            {
                "species": [
                    {
                        "element": "Sb",
                        "occu": 1
                    }
                ],
                "abc": [
                    0.5,
                    0.0,
                    0.5
                ],
                "xyz": [
                    1.8272015,
                    -1.05493536,
                    5.48740068
                ],
                "label": "Sb",
                "properties": {}
            },
            {
                "species": [
                    {
                        "element": "Sb",
                        "occu": 1
                    }
                ],
                "abc": [
                    0.0,
                    0.5,
                    0.5
                ],
                "xyz": [
                    -1.8272015,
                    -1.05493536,
                    5.48740068
                ],
                "label": "Sb",
                "properties": {}
            },
            {
                "species": [
                    {
                        "element": "Sb",
                        "occu": 1
                    }
                ],
                "abc": [
                    0.5,
                    0.5,
                    0.0
                ],
                "xyz": [
                    0.0,
                    2.10987072,
                    5.48740068
                ],
                "label": "Sb",
                "properties": {}
            },
            {
                "species": [
                    {
                        "element": "Sb",
                        "occu": 1
                    }
                ],
                "abc": [
                    0.84977452,
                    0.84977452,
                    0.84977452
                ],
                "xyz": [
                    0.0,
                    0.0,
                    13.989159836684022
                ],
                "label": "Sb",
                "properties": {}
            },
            {
                "species": [
                    {
                        "element": "Sb",
                        "occu": 1
                    }
                ],
                "abc": [
                    0.15022548,
                    0.15022548,
                    0.15022548
                ],
                "xyz": [
                    0.0,
                    0.0,
                    2.4730422033159796
                ],
                "label": "Sb",
                "properties": {}
            },
            {
                "species": [
                    {
                        "element": "O",
                        "occu": 1
                    }
                ],
                "abc": [
                    0.65222332,
                    0.0494031,
                    0.65222332
                ],
                "xyz": [
                    2.2029480204286602,
                    -1.2718727316019585,
                    7.429115983893824
                ],
                "label": "O",
                "properties": {}
            },
            {
                "species": [
                    {
                        "element": "O",
                        "occu": 1
                    }
                ],
                "abc": [
                    0.0494031,
                    0.65222332,
                    0.65222332
                ],
                "xyz": [
                    -2.2029480204286602,
                    -1.2718727316019585,
                    7.429115983893824
                ],
                "label": "O",
                "properties": {}
            },
            {
                "species": [
                    {
                        "element": "O",
                        "occu": 1
                    }
                ],
                "abc": [
                    0.65222332,
                    0.65222332,
                    0.0494031
                ],
                "xyz": [
                    0.0,
                    2.543745463203917,
                    7.429115983893824
                ],
                "label": "O",
                "properties": {}
            },
            {
                "species": [
                    {
                        "element": "O",
                        "occu": 1
                    }
                ],
                "abc": [
                    0.34777668,
                    0.9505969,
                    0.34777668
                ],
                "xyz": [
                    -2.20294802042866,
                    1.271872731601958,
                    9.033086056106177
                ],
                "label": "O",
                "properties": {}
            },
            {
                "species": [
                    {
                        "element": "O",
                        "occu": 1
                    }
                ],
                "abc": [
                    0.9505969,
                    0.34777668,
                    0.34777668
                ],
                "xyz": [
                    2.20294802042866,
                    1.271872731601958,
                    9.033086056106177
                ],
                "label": "O",
                "properties": {}
            },
            {
                "species": [
                    {
                        "element": "O",
                        "occu": 1
                    }
                ],
                "abc": [
                    0.34777668,
                    0.34777668,
                    0.9505969
                ],
                "xyz": [
                    0.0,
                    -2.5437454632039165,
                    9.033086056106178
                ],
                "label": "O",
                "properties": {}
            },
            {
                "species": [
                    {
                        "element": "O",
                        "occu": 1
                    }
                ],
                "abc": [
                    0.62004766,
                    0.24231025,
                    0.24231025
                ],
                "xyz": [
                    1.3804047243162298,
                    0.796977101207635,
                    6.061756812358349
                ],
                "label": "O",
                "properties": {}
            },
            {
                "species": [
                    {
                        "element": "O",
                        "occu": 1
                    }
                ],
                "abc": [
                    0.24231025,
                    0.62004766,
                    0.24231025
                ],
                "xyz": [
                    -1.3804047243162298,
                    0.796977101207635,
                    6.061756812358349
                ],
                "label": "O",
                "properties": {}
            },
            {
                "species": [
                    {
                        "element": "O",
                        "occu": 1
                    }
                ],
                "abc": [
                    0.24231025,
                    0.24231025,
                    0.62004766
                ],
                "xyz": [
                    0.0,
                    -1.5939542024152702,
                    6.061756812358349
                ],
                "label": "O",
                "properties": {}
            },
            {
                "species": [
                    {
                        "element": "O",
                        "occu": 1
                    }
                ],
                "abc": [
                    0.75768975,
                    0.37995234,
                    0.75768975
                ],
                "xyz": [
                    1.38040472431623,
                    -0.7969771012076352,
                    10.400445227641654
                ],
                "label": "O",
                "properties": {}
            },
            {
                "species": [
                    {
                        "element": "O",
                        "occu": 1
                    }
                ],
                "abc": [
                    0.75768975,
                    0.75768975,
                    0.37995234
                ],
                "xyz": [
                    0.0,
                    1.5939542024152704,
                    10.400445227641653
                ],
                "label": "O",
                "properties": {}
            },
            {
                "species": [
                    {
                        "element": "O",
                        "occu": 1
                    }
                ],
                "abc": [
                    0.37995234,
                    0.75768975,
                    0.75768975
                ],
                "xyz": [
                    -1.38040472431623,
                    -0.7969771012076352,
                    10.400445227641654
                ],
                "label": "O",
                "properties": {}
            }
        ]
    },
    "spacegroup": {
        "source": "spglib",
        "symbol": "R-3m",
        "number": 166,
        "point_group": "-3m",
        "crystal_system": "trigonal",
        "hall": "-R 3 2\""
    },
    "dielectric": {
        "epsilon_ionic": [
            [
                9.13182473,
                0.0,
                -0.0
            ],
            [
                0.0,
                9.13185844,
                5.53e-06
            ],
            [
                -0.0,
                5.53e-06,
                6.78485148
            ]
        ],
        "epsilon_ionic_avg": 8.34951155,
        "epsilon_ionic_eig": [
            6.784851479986971,
            9.13185844001303,
            9.13182473
        ],
        "epsilon_electronic": [
            [
                4.57543644,
                -0.0,
                0.0
            ],
            [
                0.0,
                4.57543692,
                2.7e-07
            ],
            [
                0.0,
                2.7e-07,
                4.42203831
            ]
        ],
        "epsilon_electronic_avg": 4.52430389,
        "epsilon_electronic_eig": [
            4.422038309999524,
            4.575436920000475,
            4.57543644
        ]
    },
    "phonon": {
        "lowest_freq": -0.04682455478296826,
        "frequency": [
            -0.04682455478296826,
            -0.04682455230371211,
            -0.027692970647792577,
            2.7784991206417784,
            2.778499230593283,
            3.1945737882567533,
            3.67387517798317,
            3.6738753642498003,
            3.8091371288260683,
            3.8091373277268588,
            3.926411087655679,
            4.364400754709348,
            5.023430859894297,
            5.023430957198366,
            5.500714056737936,
            6.069844870825369,
            6.069844951354653,
            6.144911422872379,
            6.144911581963445,
            6.603930800801211,
            6.6202456595045005,
            7.16537757107601,
            7.165377775726881,
            8.443084519025442,
            8.44308477954648,
            8.876665926684481,
            8.876666105648164,
            9.213171030570583,
            9.340547804801806,
            10.205156652243467,
            10.91746127552978,
            10.917461365074455,
            11.661180321051365,
            11.661180373447463,
            11.826355888263542,
            11.826356177583586,
            13.050617277721612,
            13.325753419149681,
            13.576444388342544,
            13.57644469437276,
            13.759637633551026,
            14.538268226956841,
            17.841640887624305,
            17.84164150404775,
            18.22216621553067,
            19.033999604674236,
            19.03400018248268,
            21.040261793442134,
            21.751650960656693,
            21.751651634812767,
            22.313653677316474,
            22.508315446231165,
            23.546538821302505,
            23.546539547864022
        ]
    },
    "born_effective_charge": {
        "avg_abs_trace": 2.8413462962962965,
        "tensors": [
            [
                [
                    4.22353,
                    0.0,
                    -0.0
                ],
                [
                    -0.0,
                    4.22355,
                    1e-05
                ],
                [
                    0.0,
                    -0.0,
                    4.60966
                ]
            ],
            [
                [
                    5.32016,
                    -0.51484,
                    0.03954
                ],
                [
                    -0.51484,
                    4.72568,
                    -0.02283
                ],
                [
                    -0.50299,
                    0.2904,
                    4.60293
                ]
            ],
            [
                [
                    5.32016,
                    0.51484,
                    -0.03954
                ],
                [
                    0.51484,
                    4.72568,
                    -0.02283
                ],
                [
                    0.50299,
                    0.2904,
                    4.60293
                ]
            ],
            [
                [
                    4.42843,
                    0.0,
                    -0.0
                ],
                [
                    -0.0,
                    5.6174,
                    0.04565
                ],
                [
                    0.0,
                    -0.5808,
                    4.60293
                ]
            ],
            [
                [
                    3.47925,
                    -0.00011,
                    0.00016
                ],
                [
                    -0.0,
                    3.47918,
                    -5e-05
                ],
                [
                    0.0,
                    0.0,
                    2.89823
                ]
            ],
            [
                [
                    3.47925,
                    0.00011,
                    -0.00016
                ],
                [
                    -0.0,
                    3.47931,
                    5e-05
                ],
                [
                    0.0,
                    0.0,
                    2.89807
                ]
            ],
            [
                [
                    -2.47805,
                    0.76944,
                    -0.98651
                ],
                [
                    0.76958,
                    -1.58973,
                    0.56958
                ],
                [
                    -0.23595,
                    0.13623,
                    -2.25954
                ]
            ],
            [
                [
                    -2.47831,
                    -0.76943,
                    0.98644
                ],
                [
                    -0.76958,
                    -1.58973,
                    0.56958
                ],
                [
                    0.23595,
                    0.13623,
                    -2.25954
                ]
            ],
            [
                [
                    -1.14548,
                    8e-05,
                    -0.00012
                ],
                [
                    -0.0,
                    -2.92236,
                    -1.13904
                ],
                [
                    0.0,
                    -0.27246,
                    -2.25954
                ]
            ],
            [
                [
                    -2.47831,
                    0.76943,
                    -0.98644
                ],
                [
                    0.76929,
                    -1.5897,
                    0.5695
                ],
                [
                    -0.23575,
                    0.13611,
                    -2.25937
                ]
            ],
            [
                [
                    -2.47805,
                    -0.76944,
                    0.98651
                ],
                [
                    -0.76929,
                    -1.5897,
                    0.5695
                ],
                [
                    0.23575,
                    0.13611,
                    -2.25937
                ]
            ],
            [
                [
                    -1.14548,
                    -8e-05,
                    0.00012
                ],
                [
                    -0.0,
                    -2.9225,
                    -1.1391
                ],
                [
                    0.0,
                    -0.27222,
                    -2.25937
                ]
            ],
            [
                [
                    -1.98811,
                    0.61126,
                    -0.05346
                ],
                [
                    0.61127,
                    -2.69407,
                    -0.0308
                ],
                [
                    0.04843,
                    0.02796,
                    -1.77636
                ]
            ],
            [
                [
                    -1.98837,
                    -0.61139,
                    0.05349
                ],
                [
                    -0.61127,
                    -2.69407,
                    -0.0308
                ],
                [
                    -0.04843,
                    0.02796,
                    -1.77636
                ]
            ],
            [
                [
                    -3.04708,
                    1e-05,
                    4e-05
                ],
                [
                    -0.0,
                    -1.63548,
                    0.06173
                ],
                [
                    0.0,
                    -0.05592,
                    -1.77636
                ]
            ],
            [
                [
                    -1.98811,
                    -0.61126,
                    0.05346
                ],
                [
                    -0.61138,
                    -2.69418,
                    -0.03094
                ],
                [
                    -0.04852,
                    0.02801,
                    -1.77632
                ]
            ],
            [
                [
                    -3.04708,
                    -1e-05,
                    -4e-05
                ],
                [
                    -0.0,
                    -1.6351,
                    0.06173
                ],
                [
                    0.0,
                    -0.05603,
                    -1.77632
                ]
            ],
            [
                [
                    -1.98837,
                    0.61139,
                    -0.05349
                ],
                [
                    0.61138,
                    -2.69418,
                    -0.03094
                ],
                [
                    0.04852,
                    0.02801,
                    -1.77632
                ]
            ]
        ]
    },
    "band_gap": 3.1721000000000004,
    "is_direct": false,
    "formula": "LaSb5O12"
}