{
    "mp_id": "mp-3810",
    "nelements": 3,
    "nsites": 9,
    "elements": [
        "As",
        "Hg",
        "O"
    ],
    "structure": {
        "@module": "pymatgen.core.structure",
        "@class": "Structure",
        "charge": null,
        "lattice": {
            "matrix": [
                [
                    4.9071322,
                    0.0,
                    0.0
                ],
                [
                    -2.4535666,
                    4.24970109,
                    0.0
                ],
                [
                    0.0,
                    0.0,
                    5.0077686
                ]
            ],
            "a": 4.9071322,
            "b": 4.907132402430441,
            "c": 5.0077686,
            "alpha": 90.0,
            "beta": 90.0,
            "gamma": 120.00000537653914,
            "volume": 104.43123047629675
        },
        "sites": [
            {
                "species": [
                    {
                        "element": "Hg",
                        "occu": 1
                    }
                ],
                "abc": [
                    0.0,
                    0.0,
                    0.0
                ],
                "xyz": [
                    0.0,
                    0.0,
                    0.0
                ],
                "label": "Hg",
                "properties": {}
            },
            {
                "species": [
                    {
                        "element": "As",
                        "occu": 1
                    }
                ],
                "abc": [
                    0.666667,
                    0.333333,
                    0.5
                ],
                "xyz": [
                    2.4535683868996006,
                    1.41656561343297,
                    2.5038843
                ],
                "label": "As",
                "properties": {}
            },
            {
                "species": [
                    {
                        "element": "As",
                        "occu": 1
                    }
                ],
                "abc": [
                    0.333333,
                    0.666667,
                    0.5
                ],
                "xyz": [
                    -2.7868995997604173e-06,
                    2.8331354765670302,
                    2.5038843
                ],
                "label": "As",
                "properties": {}
            },
            {
                "species": [
                    {
                        "element": "O",
                        "occu": 1
                    }
                ],
                "abc": [
                    0.37904016,
                    0.37904016,
                    0.70712467
                ],
                "xyz": [
                    0.9299998975944963,
                    1.6108073811057746,
                    3.541116718711362
                ],
                "label": "O",
                "properties": {}
            },
            {
                "species": [
                    {
                        "element": "O",
                        "occu": 1
                    }
                ],
                "abc": [
                    0.62095984,
                    0.0,
                    0.70712467
                ],
                "xyz": [
                    3.0471320257708485,
                    0.0,
                    3.541116718711362
                ],
                "label": "O",
                "properties": {}
            },
            {
                "species": [
                    {
                        "element": "O",
                        "occu": 1
                    }
                ],
                "abc": [
                    0.0,
                    0.62095984,
                    0.70712467
                ],
                "xyz": [
                    -1.523566323365344,
                    2.638893708894226,
                    3.541116718711362
                ],
                "label": "O",
                "properties": {}
            },
            {
                "species": [
                    {
                        "element": "O",
                        "occu": 1
                    }
                ],
                "abc": [
                    0.37904016,
                    0.0,
                    0.29287533
                ],
                "xyz": [
                    1.8600001742291523,
                    0.0,
                    1.466651881288638
                ],
                "label": "O",
                "properties": {}
            },
            {
                "species": [
                    {
                        "element": "O",
                        "occu": 1
                    }
                ],
                "abc": [
                    0.0,
                    0.37904016,
                    0.29287533
                ],
                "xyz": [
                    -0.930000276634656,
                    1.6108073811057746,
                    1.466651881288638
                ],
                "label": "O",
                "properties": {}
            },
            {
                "species": [
                    {
                        "element": "O",
                        "occu": 1
                    }
                ],
                "abc": [
                    0.62095984,
                    0.62095984,
                    0.29287533
                ],
                "xyz": [
                    1.5235657024055045,
                    2.638893708894226,
                    1.466651881288638
                ],
                "label": "O",
                "properties": {}
            }
        ]
    },
    "spacegroup": {
        "source": "spglib",
        "symbol": "P-31m",
        "number": 162,
        "point_group": "-3m",
        "crystal_system": "trigonal",
        "hall": "-P 3 2"
    },
    "dielectric": {
        "epsilon_ionic": [
            [
                9.06908925,
                0.0,
                -0.00031414
            ],
            [
                0.0,
                9.06835546,
                1e-08
            ],
            [
                -0.00031414,
                1e-08,
                7.12912068
            ]
        ],
        "epsilon_ionic_avg": 8.422188463333335,
        "epsilon_ionic_eig": [
            7.129120629131169,
            9.069089300868834,
            9.06835546
        ],
        "epsilon_electronic": [
            [
                5.08088617,
                -0.0,
                -0.0
            ],
            [
                0.0,
                5.08088624,
                -0.0
            ],
            [
                -0.0,
                0.0,
                4.76103025
            ]
        ],
        "epsilon_electronic_avg": 4.974267553333334,
        "epsilon_electronic_eig": [
            5.08088617,
            5.08088624,
            4.76103025
        ]
    },
    "phonon": {
        "lowest_freq": -0.02987876877772144,
        "frequency": [
            -0.02987876877772144,
            -0.029878768573228295,
            -0.020485957262252562,
            2.9314182247874285,
            2.931418245630593,
            3.1637468262767707,
            5.761583281031442,
            7.529468217657493,
            7.5294682338870675,
            9.590119835891802,
            10.061313726547937,
            10.061313762984552,
            10.775407212092764,
            11.666306885745103,
            11.66630694859279,
            15.210588973452547,
            15.210589021655835,
            15.495935381995288,
            15.495935437196888,
            17.498956687945274,
            17.498956687945274,
            18.48987724370913,
            18.706096737806813,
            20.30566556299261,
            20.938957043600478,
            21.06009675603661,
            21.06009675603661
        ]
    },
    "born_effective_charge": {
        "avg_abs_trace": 2.62116962962963,
        "tensors": [
            [
                [
                    2.80793,
                    0.0,
                    -9e-05
                ],
                [
                    0.0,
                    2.80783,
                    0.0
                ],
                [
                    0.0,
                    0.0,
                    3.45043
                ]
            ],
            [
                [
                    4.96556,
                    0.00011,
                    -0.0001
                ],
                [
                    -0.0,
                    4.96528,
                    0.0
                ],
                [
                    0.0,
                    0.0,
                    3.22887
                ]
            ],
            [
                [
                    4.96556,
                    -0.00011,
                    -0.0001
                ],
                [
                    0.0,
                    4.96545,
                    0.0
                ],
                [
                    0.0,
                    0.0,
                    3.22887
                ]
            ],
            [
                [
                    -2.30547,
                    0.316,
                    0.31607
                ],
                [
                    0.31617,
                    -1.94048,
                    0.54736
                ],
                [
                    0.26839,
                    0.46486,
                    -1.65141
                ]
            ],
            [
                [
                    -1.75832,
                    0.0,
                    -0.63199
                ],
                [
                    -0.00026,
                    -2.48814,
                    3e-05
                ],
                [
                    -0.53678,
                    0.0,
                    -1.65141
                ]
            ],
            [
                [
                    -2.30547,
                    -0.316,
                    0.31607
                ],
                [
                    -0.31596,
                    -1.94066,
                    -0.54728
                ],
                [
                    0.26839,
                    -0.46486,
                    -1.65141
                ]
            ],
            [
                [
                    -1.75825,
                    0.0,
                    -0.63192
                ],
                [
                    0.00026,
                    -2.48814,
                    -3e-05
                ],
                [
                    -0.53666,
                    0.0,
                    -1.65132
                ]
            ],
            [
                [
                    -2.30577,
                    -0.31619,
                    0.31602
                ],
                [
                    -0.31617,
                    -1.94048,
                    -0.54736
                ],
                [
                    0.26833,
                    -0.46476,
                    -1.65132
                ]
            ],
            [
                [
                    -2.30577,
                    0.31619,
                    0.31602
                ],
                [
                    0.31596,
                    -1.94066,
                    0.54728
                ],
                [
                    0.26833,
                    0.46476,
                    -1.65132
                ]
            ]
        ]
    },
    "band_gap": 0.7555000000000001,
    "is_direct": false,
    "formula": "Hg(AsO3)2"
}