{
    "mp_id": "mp-3098",
    "nelements": 3,
    "nsites": 8,
    "elements": [
        "Al",
        "Cu",
        "O"
    ],
    "structure": {
        "@module": "pymatgen.core.structure",
        "@class": "Structure",
        "charge": null,
        "lattice": {
            "matrix": [
                [
                    2.85289778,
                    0.0,
                    0.0
                ],
                [
                    -1.42644889,
                    2.47068161,
                    0.0
                ],
                [
                    0.0,
                    0.0,
                    11.21825736
                ]
            ],
            "a": 2.85289778,
            "b": 2.852897483923042,
            "c": 11.21825736,
            "alpha": 90.0,
            "beta": 90.0,
            "gamma": 120.0000034330526,
            "volume": 79.07303216454125
        },
        "sites": [
            {
                "species": [
                    {
                        "element": "Al",
                        "occu": 1
                    }
                ],
                "abc": [
                    0.0,
                    0.0,
                    0.0
                ],
                "xyz": [
                    0.0,
                    0.0,
                    0.0
                ],
                "label": "Al",
                "properties": {}
            },
            {
                "species": [
                    {
                        "element": "Al",
                        "occu": 1
                    }
                ],
                "abc": [
                    0.0,
                    0.0,
                    0.5
                ],
                "xyz": [
                    0.0,
                    0.0,
                    5.60912868
                ],
                "label": "Al",
                "properties": {}
            },
            {
                "species": [
                    {
                        "element": "Cu",
                        "occu": 1
                    }
                ],
                "abc": [
                    0.666667,
                    0.333333,
                    0.75
                ],
                "xyz": [
                    1.42645031644889,
                    0.8235597131061301,
                    8.41369302
                ],
                "label": "Cu",
                "properties": {}
            },
            {
                "species": [
                    {
                        "element": "Cu",
                        "occu": 1
                    }
                ],
                "abc": [
                    0.333333,
                    0.666667,
                    0.25
                ],
                "xyz": [
                    -1.4264488900073147e-06,
                    1.6471218968938701,
                    2.80456434
                ],
                "label": "Cu",
                "properties": {}
            },
            {
                "species": [
                    {
                        "element": "O",
                        "occu": 1
                    }
                ],
                "abc": [
                    0.333333,
                    0.666667,
                    0.41385623
                ],
                "xyz": [
                    -1.4264488900073147e-06,
                    1.6471218968938701,
                    4.642745698179353
                ],
                "label": "O",
                "properties": {}
            },
            {
                "species": [
                    {
                        "element": "O",
                        "occu": 1
                    }
                ],
                "abc": [
                    0.666667,
                    0.333333,
                    0.91385623
                ],
                "xyz": [
                    1.42645031644889,
                    0.8235597131061301,
                    10.251874378179354
                ],
                "label": "O",
                "properties": {}
            },
            {
                "species": [
                    {
                        "element": "O",
                        "occu": 1
                    }
                ],
                "abc": [
                    0.333333,
                    0.666667,
                    0.08614377
                ],
                "xyz": [
                    -1.4264488900073147e-06,
                    1.6471218968938701,
                    0.9663829818206472
                ],
                "label": "O",
                "properties": {}
            },
            {
                "species": [
                    {
                        "element": "O",
                        "occu": 1
                    }
                ],
                "abc": [
                    0.666667,
                    0.333333,
                    0.58614377
                ],
                "xyz": [
                    1.42645031644889,
                    0.8235597131061301,
                    6.575511661820647
                ],
                "label": "O",
                "properties": {}
            }
        ]
    },
    "spacegroup": {
        "source": "spglib",
        "symbol": "P6_3/mmc",
        "number": 194,
        "point_group": "6/mmm",
        "crystal_system": "hexagonal",
        "hall": "-P 6c 2c"
    },
    "dielectric": {
        "epsilon_ionic": [
            [
                4.55635471,
                0.0,
                0.0
            ],
            [
                0.0,
                4.5567719,
                0.0
            ],
            [
                0.0,
                0.0,
                2.27605577
            ]
        ],
        "epsilon_ionic_avg": 3.796394126666667,
        "epsilon_ionic_eig": [
            4.55635471,
            4.5567719,
            2.27605577
        ],
        "epsilon_electronic": [
            [
                5.0754623,
                0.0,
                0.0
            ],
            [
                0.0,
                5.07546172,
                -0.0
            ],
            [
                0.0,
                0.0,
                4.31721058
            ]
        ],
        "epsilon_electronic_avg": 4.822711533333333,
        "epsilon_electronic_eig": [
            5.0754623,
            5.07546172,
            4.31721058
        ]
    },
    "phonon": {
        "lowest_freq": -0.03236837943614731,
        "frequency": [
            -0.03236837943614731,
            -0.032368377586254445,
            -0.022271896386748792,
            1.674158858787277,
            1.6741589609759586,
            2.999324599636036,
            2.9993247707546473,
            4.330086013278944,
            4.330086264447293,
            7.8451062202782555,
            10.040118912349635,
            12.28313447786887,
            12.283135184219878,
            12.712985470423261,
            12.712986210564496,
            13.781210153093141,
            14.710320492626717,
            14.710321339950632,
            14.935375331391263,
            14.935376190492976,
            20.786865432122813,
            22.36725624074413,
            23.65124852612737,
            25.051334050461136
        ]
    },
    "born_effective_charge": {
        "avg_abs_trace": 1.9884204166666668,
        "tensors": [
            [
                [
                    3.04876,
                    0.0,
                    0.0
                ],
                [
                    0.0,
                    3.04884,
                    0.0001
                ],
                [
                    -0.0,
                    0.0,
                    2.79671
                ]
            ],
            [
                [
                    3.04876,
                    0.0,
                    0.0
                ],
                [
                    0.0,
                    3.04884,
                    -0.0001
                ],
                [
                    -0.0,
                    0.0,
                    2.79671
                ]
            ],
            [
                [
                    0.8048,
                    0.0,
                    0.0
                ],
                [
                    0.0,
                    0.80489,
                    -0.0
                ],
                [
                    -0.0,
                    0.0,
                    1.42653
                ]
            ],
            [
                [
                    0.8048,
                    -0.0,
                    0.0
                ],
                [
                    -0.0,
                    0.80488,
                    -0.0
                ],
                [
                    -0.0,
                    0.0,
                    1.42653
                ]
            ],
            [
                [
                    -1.92678,
                    2e-05,
                    2e-05
                ],
                [
                    -0.0,
                    -1.92682,
                    0.00026
                ],
                [
                    0.0,
                    -0.0,
                    -2.1116
                ]
            ],
            [
                [
                    -1.92678,
                    -2e-05,
                    2e-05
                ],
                [
                    0.0,
                    -1.9269,
                    0.00016
                ],
                [
                    -0.0,
                    0.0,
                    -2.1116
                ]
            ],
            [
                [
                    -1.92678,
                    2e-05,
                    -2e-05
                ],
                [
                    -0.0,
                    -1.92682,
                    -0.00026
                ],
                [
                    0.0,
                    -0.0,
                    -2.11164
                ]
            ],
            [
                [
                    -1.92678,
                    -2e-05,
                    -2e-05
                ],
                [
                    0.0,
                    -1.9269,
                    -0.00016
                ],
                [
                    -0.0,
                    -0.0,
                    -2.11164
                ]
            ]
        ]
    },
    "band_gap": 2.3316999999999997,
    "is_direct": false,
    "formula": "AlCuO2"
}