{
    "mp_id": "mp-31418",
    "nelements": 3,
    "nsites": 26,
    "elements": [
        "La",
        "O",
        "Sb"
    ],
    "structure": {
        "@module": "pymatgen.core.structure",
        "@class": "Structure",
        "charge": null,
        "lattice": {
            "matrix": [
                [
                    3.28338762,
                    -4.44710059,
                    0.0
                ],
                [
                    3.28338762,
                    4.44710059,
                    0.0
                ],
                [
                    0.0,
                    0.0,
                    11.80364207
                ]
            ],
            "a": 5.527869202572327,
            "b": 5.527869202572327,
            "c": 11.80364207,
            "alpha": 90.0,
            "beta": 90.0,
            "gamma": 107.12154087651162,
            "volume": 344.7030582925751
        },
        "sites": [
            {
                "species": [
                    {
                        "element": "La",
                        "occu": 1
                    }
                ],
                "abc": [
                    0.75622015,
                    0.24377985,
                    0.75
                ],
                "xyz": [
                    3.28338762,
                    -2.2788735604697767,
                    8.8527315525
                ],
                "label": "La",
                "properties": {}
            },
            {
                "species": [
                    {
                        "element": "La",
                        "occu": 1
                    }
                ],
                "abc": [
                    0.24377985,
                    0.75622015,
                    0.25
                ],
                "xyz": [
                    3.28338762,
                    2.2788735604697767,
                    2.9509105175
                ],
                "label": "La",
                "properties": {}
            },
            {
                "species": [
                    {
                        "element": "Sb",
                        "occu": 1
                    }
                ],
                "abc": [
                    0.12258705,
                    0.87741295,
                    0.90833187
                ],
                "xyz": [
                    3.2833876199999996,
                    3.3567867052372806,
                    10.721624274253772
                ],
                "label": "Sb",
                "properties": {}
            },
            {
                "species": [
                    {
                        "element": "Sb",
                        "occu": 1
                    }
                ],
                "abc": [
                    0.87741295,
                    0.12258705,
                    0.40833187
                ],
                "xyz": [
                    3.2833876199999996,
                    -3.3567867052372806,
                    4.819803239253771
                ],
                "label": "Sb",
                "properties": {}
            },
            {
                "species": [
                    {
                        "element": "Sb",
                        "occu": 1
                    }
                ],
                "abc": [
                    0.87741295,
                    0.12258705,
                    0.09166813
                ],
                "xyz": [
                    3.2833876199999996,
                    -3.3567867052372806,
                    1.0820177957462291
                ],
                "label": "Sb",
                "properties": {}
            },
            {
                "species": [
                    {
                        "element": "Sb",
                        "occu": 1
                    }
                ],
                "abc": [
                    0.12258705,
                    0.87741295,
                    0.59166813
                ],
                "xyz": [
                    3.2833876199999996,
                    3.3567867052372806,
                    6.983838830746229
                ],
                "label": "Sb",
                "properties": {}
            },
            {
                "species": [
                    {
                        "element": "Sb",
                        "occu": 1
                    }
                ],
                "abc": [
                    0.5,
                    0.5,
                    0.0
                ],
                "xyz": [
                    3.28338762,
                    0.0,
                    0.0
                ],
                "label": "Sb",
                "properties": {}
            },
            {
                "species": [
                    {
                        "element": "Sb",
                        "occu": 1
                    }
                ],
                "abc": [
                    0.5,
                    0.5,
                    0.5
                ],
                "xyz": [
                    3.28338762,
                    0.0,
                    5.901821035
                ],
                "label": "Sb",
                "properties": {}
            },
            {
                "species": [
                    {
                        "element": "O",
                        "occu": 1
                    }
                ],
                "abc": [
                    0.94493415,
                    0.05506585,
                    0.25
                ],
                "xyz": [
                    3.28338762,
                    -3.9573338419522965,
                    2.9509105175
                ],
                "label": "O",
                "properties": {}
            },
            {
                "species": [
                    {
                        "element": "O",
                        "occu": 1
                    }
                ],
                "abc": [
                    0.05506585,
                    0.94493415,
                    0.75
                ],
                "xyz": [
                    3.28338762,
                    3.9573338419522965,
                    8.8527315525
                ],
                "label": "O",
                "properties": {}
            },
            {
                "species": [
                    {
                        "element": "O",
                        "occu": 1
                    }
                ],
                "abc": [
                    0.10422539,
                    0.89577461,
                    0.07497598
                ],
                "xyz": [
                    3.2833876200000005,
                    3.52009900327604,
                    0.8849896317674786
                ],
                "label": "O",
                "properties": {}
            },
            {
                "species": [
                    {
                        "element": "O",
                        "occu": 1
                    }
                ],
                "abc": [
                    0.89577461,
                    0.10422539,
                    0.57497598
                ],
                "xyz": [
                    3.2833876200000005,
                    -3.52009900327604,
                    6.7868106667674795
                ],
                "label": "O",
                "properties": {}
            },
            {
                "species": [
                    {
                        "element": "O",
                        "occu": 1
                    }
                ],
                "abc": [
                    0.89577461,
                    0.10422539,
                    0.92502402
                ],
                "xyz": [
                    3.2833876200000005,
                    -3.52009900327604,
                    10.91865243823252
                ],
                "label": "O",
                "properties": {}
            },
            {
                "species": [
                    {
                        "element": "O",
                        "occu": 1
                    }
                ],
                "abc": [
                    0.10422539,
                    0.89577461,
                    0.42502402
                ],
                "xyz": [
                    3.2833876200000005,
                    3.52009900327604,
                    5.016831403232522
                ],
                "label": "O",
                "properties": {}
            },
            {
                "species": [
                    {
                        "element": "O",
                        "occu": 1
                    }
                ],
                "abc": [
                    0.33812733,
                    0.66187267,
                    0.8816468
                ],
                "xyz": [
                    3.2833876200000005,
                    1.4397280925237508,
                    10.406643259360877
                ],
                "label": "O",
                "properties": {}
            },
            {
                "species": [
                    {
                        "element": "O",
                        "occu": 1
                    }
                ],
                "abc": [
                    0.66187267,
                    0.33812733,
                    0.3816468
                ],
                "xyz": [
                    3.2833876200000005,
                    -1.4397280925237508,
                    4.504822224360876
                ],
                "label": "O",
                "properties": {}
            },
            {
                "species": [
                    {
                        "element": "O",
                        "occu": 1
                    }
                ],
                "abc": [
                    0.42022025,
                    0.19074432,
                    0.59937815
                ],
                "xyz": [
                    2.0060335053966236,
                    -1.020502543693799,
                    7.074845147178771
                ],
                "label": "O",
                "properties": {}
            },
            {
                "species": [
                    {
                        "element": "O",
                        "occu": 1
                    }
                ],
                "abc": [
                    0.57977975,
                    0.80925568,
                    0.09937815
                ],
                "xyz": [
                    4.5607417346033765,
                    1.0205025436937984,
                    1.1730241121787706
                ],
                "label": "O",
                "properties": {}
            },
            {
                "species": [
                    {
                        "element": "O",
                        "occu": 1
                    }
                ],
                "abc": [
                    0.19074432,
                    0.42022025,
                    0.40062185
                ],
                "xyz": [
                    2.0060335053966236,
                    1.020502543693799,
                    4.72879692282123
                ],
                "label": "O",
                "properties": {}
            },
            {
                "species": [
                    {
                        "element": "O",
                        "occu": 1
                    }
                ],
                "abc": [
                    0.80925568,
                    0.57977975,
                    0.90062185
                ],
                "xyz": [
                    4.5607417346033765,
                    -1.0205025436937984,
                    10.63061795782123
                ],
                "label": "O",
                "properties": {}
            },
            {
                "species": [
                    {
                        "element": "O",
                        "occu": 1
                    }
                ],
                "abc": [
                    0.57977975,
                    0.80925568,
                    0.40062185
                ],
                "xyz": [
                    4.5607417346033765,
                    1.0205025436937984,
                    4.72879692282123
                ],
                "label": "O",
                "properties": {}
            },
            {
                "species": [
                    {
                        "element": "O",
                        "occu": 1
                    }
                ],
                "abc": [
                    0.42022025,
                    0.19074432,
                    0.90062185
                ],
                "xyz": [
                    2.0060335053966236,
                    -1.020502543693799,
                    10.63061795782123
                ],
                "label": "O",
                "properties": {}
            },
            {
                "species": [
                    {
                        "element": "O",
                        "occu": 1
                    }
                ],
                "abc": [
                    0.80925568,
                    0.57977975,
                    0.59937815
                ],
                "xyz": [
                    4.5607417346033765,
                    -1.0205025436937984,
                    7.074845147178771
                ],
                "label": "O",
                "properties": {}
            },
            {
                "species": [
                    {
                        "element": "O",
                        "occu": 1
                    }
                ],
                "abc": [
                    0.19074432,
                    0.42022025,
                    0.09937815
                ],
                "xyz": [
                    2.0060335053966236,
                    1.020502543693799,
                    1.1730241121787706
                ],
                "label": "O",
                "properties": {}
            },
            {
                "species": [
                    {
                        "element": "O",
                        "occu": 1
                    }
                ],
                "abc": [
                    0.33812733,
                    0.66187267,
                    0.6183532
                ],
                "xyz": [
                    3.2833876200000005,
                    1.4397280925237508,
                    7.298819845639125
                ],
                "label": "O",
                "properties": {}
            },
            {
                "species": [
                    {
                        "element": "O",
                        "occu": 1
                    }
                ],
                "abc": [
                    0.66187267,
                    0.33812733,
                    0.1183532
                ],
                "xyz": [
                    3.2833876200000005,
                    -1.4397280925237508,
                    1.396998810639124
                ],
                "label": "O",
                "properties": {}
            }
        ]
    },
    "spacegroup": {
        "source": "spglib",
        "symbol": "Cmcm",
        "number": 63,
        "point_group": "mmm",
        "crystal_system": "orthorhombic",
        "hall": "-C 2c 2"
    },
    "dielectric": {
        "epsilon_ionic": [
            [
                15.03223326,
                1e-08,
                0.0
            ],
            [
                1e-08,
                8.47929769,
                -0.0
            ],
            [
                0.0,
                -0.0,
                8.87975171
            ]
        ],
        "epsilon_ionic_avg": 10.79709422,
        "epsilon_ionic_eig": [
            15.03223326,
            8.47929769,
            8.87975171
        ],
        "epsilon_electronic": [
            [
                4.16704441,
                0.0,
                0.0
            ],
            [
                0.0,
                4.39040342,
                -0.0
            ],
            [
                0.0,
                -0.0,
                4.38953686
            ]
        ],
        "epsilon_electronic_avg": 4.315661563333333,
        "epsilon_electronic_eig": [
            4.16704441,
            4.39040342,
            4.38953686
        ]
    },
    "phonon": {
        "lowest_freq": -0.04178604501909532,
        "frequency": [
            -0.04178604501909532,
            -0.032946492939842136,
            -0.0290543834650692,
            1.7913665205081781,
            1.8107537043094744,
            1.8397953339326407,
            2.4602087372592423,
            3.107826453769095,
            3.1089405740784883,
            3.3143579002988433,
            3.469092373255732,
            4.170177307183124,
            4.569577602261013,
            4.590849006920887,
            4.621101430239909,
            4.793729432157287,
            5.118315379810106,
            5.313898502303386,
            5.315957423131896,
            5.478823564009921,
            5.718076874972381,
            5.824943150746245,
            6.6636888617127745,
            6.667119661106175,
            6.806036694491595,
            6.937950437477626,
            6.940041223919275,
            7.249261357785861,
            7.4383785002615594,
            7.5503470677327575,
            7.555075386336502,
            7.884655530482987,
            7.97946678316202,
            8.403189872281018,
            8.719282825852199,
            8.760684774215116,
            8.80290721357092,
            8.864547815695563,
            9.806546484026116,
            10.36176741345238,
            10.56763023754015,
            10.626535938541572,
            10.844054643798536,
            11.252249669815802,
            11.82821864234678,
            12.661805069548224,
            12.669458454673125,
            12.728762182766792,
            12.84132060948221,
            13.164425576556733,
            13.373960927164255,
            14.14706522882263,
            14.185941393903652,
            14.51896075190164,
            14.608715148112383,
            14.797131535593245,
            15.869112670904018,
            16.6210640707308,
            16.89508797970715,
            16.941075590256627,
            17.840599238561484,
            17.99456094851416,
            18.292745182401607,
            18.295990292414487,
            18.42227976016231,
            18.714317687204403,
            19.050047825015927,
            19.667088037784538,
            19.79464709593934,
            20.65040473551334,
            20.81031169323605,
            20.91655846055021,
            21.412117656537387,
            22.607174456118976,
            22.951799225513597,
            22.972252626013525,
            24.7745903846849,
            25.23904588093798
        ]
    },
    "born_effective_charge": {
        "avg_abs_trace": 2.9265715384615385,
        "tensors": [
            [
                [
                    3.06529,
                    -3e-05,
                    0.0
                ],
                [
                    0.0,
                    4.31122,
                    -0.0
                ],
                [
                    -0.0,
                    4e-05,
                    5.8914
                ]
            ],
            [
                [
                    3.06529,
                    3e-05,
                    0.0
                ],
                [
                    0.0,
                    4.31147,
                    -0.0
                ],
                [
                    -0.0,
                    -4e-05,
                    5.8914
                ]
            ],
            [
                [
                    5.29553,
                    2e-05,
                    -7e-05
                ],
                [
                    0.0,
                    4.52633,
                    0.17553
                ],
                [
                    -0.0,
                    -0.49047,
                    4.77472
                ]
            ],
            [
                [
                    5.29553,
                    -2e-05,
                    -7e-05
                ],
                [
                    0.0,
                    4.52616,
                    -0.17565
                ],
                [
                    -0.0,
                    0.49047,
                    4.77472
                ]
            ],
            [
                [
                    5.29553,
                    -2e-05,
                    7e-05
                ],
                [
                    0.0,
                    4.52616,
                    0.17565
                ],
                [
                    -0.0,
                    -0.49044,
                    4.77467
                ]
            ],
            [
                [
                    5.29553,
                    2e-05,
                    7e-05
                ],
                [
                    0.0,
                    4.52633,
                    -0.17553
                ],
                [
                    -0.0,
                    0.49044,
                    4.77467
                ]
            ],
            [
                [
                    4.78052,
                    0.0,
                    0.0
                ],
                [
                    0.0,
                    5.65637,
                    -0.79161
                ],
                [
                    -0.0,
                    0.5717,
                    4.17028
                ]
            ],
            [
                [
                    4.78052,
                    0.0,
                    0.0
                ],
                [
                    0.0,
                    5.65637,
                    0.79161
                ],
                [
                    -0.0,
                    -0.5717,
                    4.17028
                ]
            ],
            [
                [
                    -1.36806,
                    -9e-05,
                    0.0
                ],
                [
                    0.0,
                    -1.97746,
                    -0.0
                ],
                [
                    -0.0,
                    2e-05,
                    -3.28898
                ]
            ],
            [
                [
                    -1.36806,
                    9e-05,
                    0.0
                ],
                [
                    0.0,
                    -1.97719,
                    -0.0
                ],
                [
                    -0.0,
                    -2e-05,
                    -3.28898
                ]
            ],
            [
                [
                    -1.36573,
                    -1e-05,
                    6e-05
                ],
                [
                    0.0,
                    -2.24343,
                    0.34816
                ],
                [
                    -0.0,
                    0.16595,
                    -2.81975
                ]
            ],
            [
                [
                    -1.36573,
                    1e-05,
                    6e-05
                ],
                [
                    0.0,
                    -2.2432,
                    -0.34811
                ],
                [
                    -0.0,
                    -0.16595,
                    -2.81975
                ]
            ],
            [
                [
                    -1.36573,
                    1e-05,
                    -6e-05
                ],
                [
                    0.0,
                    -2.2432,
                    0.34811
                ],
                [
                    -0.0,
                    0.16591,
                    -2.81978
                ]
            ],
            [
                [
                    -1.36573,
                    -1e-05,
                    -6e-05
                ],
                [
                    0.0,
                    -2.24343,
                    -0.34816
                ],
                [
                    -0.0,
                    -0.16591,
                    -2.81978
                ]
            ],
            [
                [
                    -1.40903,
                    -9e-05,
                    0.00011
                ],
                [
                    0.0,
                    -2.85541,
                    0.62243
                ],
                [
                    -0.0,
                    0.55525,
                    -1.56069
                ]
            ],
            [
                [
                    -1.40903,
                    9e-05,
                    0.00011
                ],
                [
                    0.0,
                    -2.85484,
                    -0.62212
                ],
                [
                    -0.0,
                    -0.55525,
                    -1.56069
                ]
            ],
            [
                [
                    -2.87991,
                    -0.23123,
                    0.11438
                ],
                [
                    -0.03633,
                    -1.71147,
                    0.49104
                ],
                [
                    0.01769,
                    0.54584,
                    -1.89029
                ]
            ],
            [
                [
                    -2.87974,
                    -0.23125,
                    -0.11441
                ],
                [
                    -0.03577,
                    -1.71152,
                    -0.49105
                ],
                [
                    -0.01769,
                    -0.54584,
                    -1.89029
                ]
            ],
            [
                [
                    -2.87991,
                    0.23123,
                    -0.11438
                ],
                [
                    0.03577,
                    -1.71152,
                    0.49105
                ],
                [
                    -0.01779,
                    0.54588,
                    -1.89029
                ]
            ],
            [
                [
                    -2.87974,
                    0.23125,
                    0.11441
                ],
                [
                    0.03633,
                    -1.71147,
                    -0.49104
                ],
                [
                    0.01779,
                    -0.54588,
                    -1.89029
                ]
            ],
            [
                [
                    -2.87974,
                    -0.23125,
                    0.11441
                ],
                [
                    -0.03577,
                    -1.71152,
                    0.49105
                ],
                [
                    0.01779,
                    0.54588,
                    -1.89029
                ]
            ],
            [
                [
                    -2.87991,
                    -0.23123,
                    -0.11438
                ],
                [
                    -0.03633,
                    -1.71147,
                    -0.49104
                ],
                [
                    -0.01779,
                    -0.54588,
                    -1.89029
                ]
            ],
            [
                [
                    -2.87974,
                    0.23125,
                    -0.11441
                ],
                [
                    0.03633,
                    -1.71147,
                    0.49104
                ],
                [
                    -0.01769,
                    0.54584,
                    -1.89029
                ]
            ],
            [
                [
                    -2.87991,
                    0.23123,
                    0.11438
                ],
                [
                    0.03577,
                    -1.71152,
                    -0.49105
                ],
                [
                    0.01769,
                    -0.54584,
                    -1.89029
                ]
            ],
            [
                [
                    -1.40903,
                    -9e-05,
                    -0.00011
                ],
                [
                    0.0,
                    -2.85541,
                    -0.62243
                ],
                [
                    -0.0,
                    -0.55515,
                    -1.56072
                ]
            ],
            [
                [
                    -1.40903,
                    9e-05,
                    -0.00011
                ],
                [
                    0.0,
                    -2.85484,
                    0.62212
                ],
                [
                    -0.0,
                    0.55515,
                    -1.56072
                ]
            ]
        ]
    },
    "band_gap": 1.6656000000000004,
    "is_direct": true,
    "formula": "La(SbO3)3"
}