{
    "mp_id": "mp-30303",
    "nelements": 2,
    "nsites": 22,
    "elements": [
        "Bi",
        "O"
    ],
    "structure": {
        "@module": "pymatgen.core.structure",
        "@class": "Structure",
        "charge": null,
        "lattice": {
            "matrix": [
                [
                    6.7098994,
                    -0.00114729,
                    -0.00044262
                ],
                [
                    1.32582121,
                    6.73473278,
                    -0.0004508
                ],
                [
                    0.09376206,
                    2.31091412,
                    7.47671679
                ]
            ],
            "a": 6.709899512683269,
            "b": 6.863995024919018,
            "c": 7.826264073731395,
            "alpha": 73.0242154194549,
            "beta": 89.32005906281314,
            "gamma": 78.87277935056348,
            "volume": 337.8854783573604
        },
        "sites": [
            {
                "species": [
                    {
                        "element": "Bi",
                        "occu": 1
                    }
                ],
                "abc": [
                    0.0,
                    0.0,
                    0.5
                ],
                "xyz": [
                    0.04688103,
                    1.15545706,
                    3.738358395
                ],
                "label": "Bi",
                "properties": {}
            },
            {
                "species": [
                    {
                        "element": "Bi",
                        "occu": 1
                    }
                ],
                "abc": [
                    0.52950923,
                    0.99773655,
                    0.74467329
                ],
                "xyz": [
                    4.945596046351064,
                    8.439757569092478,
                    5.567027139395417
                ],
                "label": "Bi",
                "properties": {}
            },
            {
                "species": [
                    {
                        "element": "Bi",
                        "occu": 1
                    }
                ],
                "abc": [
                    0.47049077,
                    0.00226345,
                    0.25532671
                ],
                "xyz": [
                    3.183886623648935,
                    0.6047420409075229,
                    1.9087962306045836
                ],
                "label": "Bi",
                "properties": {}
            },
            {
                "species": [
                    {
                        "element": "Bi",
                        "occu": 1
                    }
                ],
                "abc": [
                    0.0,
                    0.0,
                    0.0
                ],
                "xyz": [
                    0.0,
                    0.0,
                    0.0
                ],
                "label": "Bi",
                "properties": {}
            },
            {
                "species": [
                    {
                        "element": "Bi",
                        "occu": 1
                    }
                ],
                "abc": [
                    0.73646234,
                    0.52266346,
                    0.11634814
                ],
                "xyz": [
                    5.645455555532151,
                    3.7880243606538966,
                    0.8693405021745718
                ],
                "label": "Bi",
                "properties": {}
            },
            {
                "species": [
                    {
                        "element": "Bi",
                        "occu": 1
                    }
                ],
                "abc": [
                    0.26353766,
                    0.47733654,
                    0.88365186
                ],
                "xyz": [
                    2.484027114467849,
                    5.256475249346103,
                    6.606482867825427
                ],
                "label": "Bi",
                "properties": {}
            },
            {
                "species": [
                    {
                        "element": "Bi",
                        "occu": 1
                    }
                ],
                "abc": [
                    0.26930232,
                    0.49524222,
                    0.3834065
                ],
                "xyz": [
                    2.499543098007484,
                    4.221034539765039,
                    2.8662793621594806
                ],
                "label": "Bi",
                "properties": {}
            },
            {
                "species": [
                    {
                        "element": "Bi",
                        "occu": 1
                    }
                ],
                "abc": [
                    0.73069768,
                    0.50475778,
                    0.6165935
                ],
                "xyz": [
                    5.629939571992516,
                    4.8234650702349615,
                    4.60954400784052
                ],
                "label": "Bi",
                "properties": {}
            },
            {
                "species": [
                    {
                        "element": "O",
                        "occu": 1
                    }
                ],
                "abc": [
                    0.53650801,
                    0.62958454,
                    0.81845508
                ],
                "xyz": [
                    4.511371345332552,
                    6.130847510002158,
                    6.118835552610776
                ],
                "label": "O",
                "properties": {}
            },
            {
                "species": [
                    {
                        "element": "O",
                        "occu": 1
                    }
                ],
                "abc": [
                    0.46349199,
                    0.37041546,
                    0.18154492
                ],
                "xyz": [
                    3.618111324667448,
                    2.9136520999978415,
                    1.3569878173892251
                ],
                "label": "O",
                "properties": {}
            },
            {
                "species": [
                    {
                        "element": "O",
                        "occu": 1
                    }
                ],
                "abc": [
                    0.70490254,
                    0.94610065,
                    0.05440404
                ],
                "xyz": [
                    5.989286473631984,
                    6.496649397320235,
                    0.4060250931765568
                ],
                "label": "O",
                "properties": {}
            },
            {
                "species": [
                    {
                        "element": "O",
                        "occu": 1
                    }
                ],
                "abc": [
                    0.29509746,
                    0.05389935,
                    0.94559596
                ],
                "xyz": [
                    2.140196196368015,
                    2.547850212679765,
                    7.069798276823443
                ],
                "label": "O",
                "properties": {}
            },
            {
                "species": [
                    {
                        "element": "O",
                        "occu": 1
                    }
                ],
                "abc": [
                    0.71395932,
                    0.91181872,
                    0.48423487
                ],
                "xyz": [
                    6.0449066704784915,
                    7.259061503092762,
                    3.619759922279273
                ],
                "label": "O",
                "properties": {}
            },
            {
                "species": [
                    {
                        "element": "O",
                        "occu": 1
                    }
                ],
                "abc": [
                    0.28604068,
                    0.08818128,
                    0.51576513
                ],
                "xyz": [
                    2.0845759995215087,
                    1.785438106907237,
                    3.856063447720727
                ],
                "label": "O",
                "properties": {}
            },
            {
                "species": [
                    {
                        "element": "O",
                        "occu": 1
                    }
                ],
                "abc": [
                    0.46858695,
                    0.34933542,
                    0.63989175
                ],
                "xyz": [
                    3.6673251725500933,
                    3.830877979513712,
                    4.783924504644338
                ],
                "label": "O",
                "properties": {}
            },
            {
                "species": [
                    {
                        "element": "O",
                        "occu": 1
                    }
                ],
                "abc": [
                    0.53141305,
                    0.65066458,
                    0.36010825
                ],
                "xyz": [
                    4.462157497449907,
                    5.213621630486288,
                    2.691898865355663
                ],
                "label": "O",
                "properties": {}
            },
            {
                "species": [
                    {
                        "element": "O",
                        "occu": 1
                    }
                ],
                "abc": [
                    0.08519283,
                    0.6757378,
                    0.0356881
                ],
                "xyz": [
                    1.4708890163135262,
                    4.633287905669126,
                    0.26648748582254445
                ],
                "label": "O",
                "properties": {}
            },
            {
                "species": [
                    {
                        "element": "O",
                        "occu": 1
                    }
                ],
                "abc": [
                    0.91480717,
                    0.3242622,
                    0.9643119
                ],
                "xyz": [
                    6.658593653686474,
                    4.411211704330874,
                    7.209335884177456
                ],
                "label": "O",
                "properties": {}
            },
            {
                "species": [
                    {
                        "element": "O",
                        "occu": 1
                    }
                ],
                "abc": [
                    0.89308759,
                    0.32252625,
                    0.37354436
                ],
                "xyz": [
                    6.455164316015191,
                    3.0343324137947074,
                    2.7923446949592186
                ],
                "label": "O",
                "properties": {}
            },
            {
                "species": [
                    {
                        "element": "O",
                        "occu": 1
                    }
                ],
                "abc": [
                    0.10691241,
                    0.67747375,
                    0.62645564
                ],
                "xyz": [
                    1.6743183539848099,
                    6.010167196205293,
                    4.683478675040781
                ],
                "label": "O",
                "properties": {}
            },
            {
                "species": [
                    {
                        "element": "O",
                        "occu": 1
                    }
                ],
                "abc": [
                    0.11518472,
                    0.90974921,
                    0.27304398
                ],
                "xyz": [
                    2.0046438480513107,
                    6.757766864651692,
                    2.0410114116697904
                ],
                "label": "O",
                "properties": {}
            },
            {
                "species": [
                    {
                        "element": "O",
                        "occu": 1
                    }
                ],
                "abc": [
                    0.88481528,
                    0.09025079,
                    0.72695602
                ],
                "xyz": [
                    6.124838821948689,
                    2.2867327453483077,
                    5.434811958330211
                ],
                "label": "O",
                "properties": {}
            }
        ]
    },
    "spacegroup": {
        "source": "spglib",
        "symbol": "P-1",
        "number": 2,
        "point_group": "-1",
        "crystal_system": "triclinic",
        "hall": "-P 1"
    },
    "dielectric": {
        "epsilon_ionic": [
            [
                22.34143763,
                -3.06627168,
                2.06719569
            ],
            [
                -3.06627168,
                29.36043766,
                3.11782407
            ],
            [
                2.06719569,
                3.11782407,
                37.23374145
            ]
        ],
        "epsilon_ionic_avg": 29.64520558,
        "epsilon_ionic_eig": [
            20.620967674840347,
            29.935418270700254,
            38.37923079445941
        ],
        "epsilon_electronic": [
            [
                7.07907077,
                -0.12124366,
                0.0183684
            ],
            [
                -0.12124642,
                7.38678938,
                0.03240755
            ],
            [
                0.01836875,
                0.03240397,
                7.61531851
            ]
        ],
        "epsilon_electronic_avg": 7.360392886666666,
        "epsilon_electronic_eig": [
            7.035686453555409,
            7.42566269794985,
            7.619829508494741
        ]
    },
    "phonon": {
        "lowest_freq": -0.06854690609719188,
        "frequency": [
            -0.06854690609719188,
            -0.052985611237821924,
            -0.021041878713108537,
            1.369667742481622,
            1.5982486769076225,
            1.6605935270529808,
            1.7369259864219155,
            1.9355937431308619,
            1.9966616830542128,
            2.165200599169842,
            2.4183291651015812,
            2.4223803012834613,
            2.6510257085490476,
            2.722155232286906,
            2.9669398304923975,
            3.2587336588349625,
            3.4453981252739907,
            3.5421701909564756,
            3.6894664560252175,
            3.7582635150322328,
            3.8349608784849902,
            3.88606311582829,
            4.325025677144844,
            4.462158150171369,
            4.576125899589081,
            4.721266524441215,
            4.900382352321201,
            5.406177433448927,
            5.602173627455053,
            5.711979752679338,
            5.721424020983213,
            6.473222575890634,
            6.481073576106844,
            6.6945919664532,
            6.850703480226509,
            6.925195292914831,
            7.2509234934625715,
            7.368169941427107,
            7.717006171894915,
            7.750009825952622,
            8.250528428705152,
            8.426570715136904,
            8.592719645757336,
            8.613754721212617,
            9.18445148639916,
            9.494116673769632,
            9.78408771231995,
            10.367627858628508,
            10.5028301009948,
            10.716055980206152,
            11.18244799716875,
            12.240253522306357,
            12.431758741024833,
            13.633568199542813,
            14.290942467827685,
            14.694114811173595,
            14.947790744904005,
            15.229381178121473,
            15.747215971131041,
            15.788297696905191,
            16.39611352831623,
            16.661767916395696,
            17.039709622206136,
            17.334614202924488,
            17.858261374333562,
            18.89033142337274
        ]
    },
    "born_effective_charge": {
        "avg_abs_trace": 3.4712065151515152,
        "tensors": [
            [
                [
                    5.79394,
                    -0.2729,
                    -0.59544
                ],
                [
                    0.00086,
                    5.22694,
                    0.31362
                ],
                [
                    -0.74165,
                    0.20165,
                    4.66985
                ]
            ],
            [
                [
                    4.41593,
                    0.02095,
                    -0.18162
                ],
                [
                    -0.09468,
                    5.20569,
                    -0.01479
                ],
                [
                    -0.0501,
                    -0.13764,
                    5.10812
                ]
            ],
            [
                [
                    4.41589,
                    0.02074,
                    -0.18204
                ],
                [
                    -0.09448,
                    5.20582,
                    -0.01461
                ],
                [
                    -0.04984,
                    -0.138,
                    5.10789
                ]
            ],
            [
                [
                    5.33083,
                    0.20855,
                    0.79662
                ],
                [
                    0.63255,
                    5.0034,
                    -0.39217
                ],
                [
                    0.5732,
                    -0.17606,
                    5.30253
                ]
            ],
            [
                [
                    4.64828,
                    -0.03098,
                    -0.13554
                ],
                [
                    -0.36759,
                    3.83425,
                    0.21545
                ],
                [
                    -0.04933,
                    0.24939,
                    5.03984
                ]
            ],
            [
                [
                    4.64817,
                    -0.03098,
                    -0.13528
                ],
                [
                    -0.36747,
                    3.83441,
                    0.2155
                ],
                [
                    -0.0493,
                    0.24894,
                    5.04026
                ]
            ],
            [
                [
                    4.13036,
                    0.05792,
                    -0.00135
                ],
                [
                    0.03163,
                    4.57367,
                    0.25373
                ],
                [
                    0.07011,
                    0.36201,
                    4.65491
                ]
            ],
            [
                [
                    4.13017,
                    0.05777,
                    -0.00129
                ],
                [
                    0.03171,
                    4.57382,
                    0.25364
                ],
                [
                    0.06944,
                    0.36187,
                    4.65484
                ]
            ],
            [
                [
                    -2.93182,
                    -0.63366,
                    0.26687
                ],
                [
                    -0.12691,
                    -2.94939,
                    0.02407
                ],
                [
                    0.27783,
                    -0.28067,
                    -2.94114
                ]
            ],
            [
                [
                    -2.932,
                    -0.63386,
                    0.26669
                ],
                [
                    -0.12691,
                    -2.9496,
                    0.02393
                ],
                [
                    0.27596,
                    -0.28161,
                    -2.9409
                ]
            ],
            [
                [
                    -3.20828,
                    0.12293,
                    0.44747
                ],
                [
                    -0.02753,
                    -2.16291,
                    -0.12819
                ],
                [
                    0.75454,
                    -0.27452,
                    -2.66269
                ]
            ],
            [
                [
                    -3.20785,
                    0.12312,
                    0.44736
                ],
                [
                    -0.0279,
                    -2.16269,
                    -0.12779
                ],
                [
                    0.75331,
                    -0.27532,
                    -2.66159
                ]
            ],
            [
                [
                    -3.23211,
                    -0.1844,
                    -0.15317
                ],
                [
                    -0.283,
                    -2.22115,
                    -0.29429
                ],
                [
                    -0.49905,
                    -0.11377,
                    -2.84653
                ]
            ],
            [
                [
                    -3.23271,
                    -0.1847,
                    -0.15312
                ],
                [
                    -0.28278,
                    -2.22163,
                    -0.29441
                ],
                [
                    -0.49959,
                    -0.1151,
                    -2.84763
                ]
            ],
            [
                [
                    -2.61675,
                    -0.50899,
                    0.01985
                ],
                [
                    -0.26411,
                    -3.25233,
                    0.33115
                ],
                [
                    -0.28668,
                    0.41012,
                    -2.70951
                ]
            ],
            [
                [
                    -2.61695,
                    -0.50896,
                    0.01988
                ],
                [
                    -0.26401,
                    -3.25266,
                    0.33105
                ],
                [
                    -0.28709,
                    0.41029,
                    -2.70963
                ]
            ],
            [
                [
                    -2.14982,
                    0.40606,
                    0.08405
                ],
                [
                    0.30132,
                    -3.37747,
                    -0.16336
                ],
                [
                    0.33588,
                    -0.63316,
                    -2.21004
                ]
            ],
            [
                [
                    -2.1497,
                    0.4067,
                    0.08419
                ],
                [
                    0.30107,
                    -3.3783,
                    -0.16306
                ],
                [
                    0.33699,
                    -0.63215,
                    -2.21059
                ]
            ],
            [
                [
                    -1.99166,
                    0.55202,
                    -0.2757
                ],
                [
                    0.31095,
                    -2.65544,
                    0.3066
                ],
                [
                    -0.3907,
                    0.81502,
                    -2.9701
                ]
            ],
            [
                [
                    -1.99176,
                    0.55242,
                    -0.27614
                ],
                [
                    0.31059,
                    -2.65623,
                    0.3067
                ],
                [
                    -0.39114,
                    0.8153,
                    -2.971
                ]
            ],
            [
                [
                    -2.62601,
                    0.23017,
                    -0.171
                ],
                [
                    0.20365,
                    -2.10903,
                    -0.49089
                ],
                [
                    -0.07517,
                    -0.40859,
                    -3.44846
                ]
            ],
            [
                [
                    -2.62616,
                    0.23007,
                    -0.1713
                ],
                [
                    0.20307,
                    -2.10918,
                    -0.49189
                ],
                [
                    -0.07763,
                    -0.408,
                    -3.44842
                ]
            ]
        ]
    },
    "band_gap": 0.8885000000000005,
    "is_direct": false,
    "formula": "Bi4O7"
}