{
    "mp_id": "mp-3427",
    "nelements": 3,
    "nsites": 16,
    "elements": [
        "Al",
        "Li",
        "O"
    ],
    "structure": {
        "@module": "pymatgen.core.structure",
        "@class": "Structure",
        "charge": null,
        "lattice": {
            "matrix": [
                [
                    5.17586554,
                    0.0,
                    0.0
                ],
                [
                    0.0,
                    5.17586554,
                    0.0
                ],
                [
                    0.0,
                    0.0,
                    6.26821135
                ]
            ],
            "a": 5.17586554,
            "b": 5.17586554,
            "c": 6.26821135,
            "alpha": 90.0,
            "beta": 90.0,
            "gamma": 90.0,
            "volume": 167.92277504318074
        },
        "sites": [
            {
                "species": [
                    {
                        "element": "Li",
                        "occu": 1
                    }
                ],
                "abc": [
                    0.6866609,
                    0.3133391,
                    0.25
                ],
                "xyz": [
                    3.5540644899753864,
                    1.621801050024614,
                    1.5670528375
                ],
                "label": "Li",
                "properties": {}
            },
            {
                "species": [
                    {
                        "element": "Li",
                        "occu": 1
                    }
                ],
                "abc": [
                    0.1866609,
                    0.1866609,
                    0.5
                ],
                "xyz": [
                    0.9661317199753859,
                    0.9661317199753859,
                    3.134105675
                ],
                "label": "Li",
                "properties": {}
            },
            {
                "species": [
                    {
                        "element": "Li",
                        "occu": 1
                    }
                ],
                "abc": [
                    0.3133391,
                    0.6866609,
                    0.75
                ],
                "xyz": [
                    1.621801050024614,
                    3.5540644899753864,
                    4.701158512499999
                ],
                "label": "Li",
                "properties": {}
            },
            {
                "species": [
                    {
                        "element": "Li",
                        "occu": 1
                    }
                ],
                "abc": [
                    0.8133391,
                    0.8133391,
                    0.0
                ],
                "xyz": [
                    4.209733820024614,
                    4.209733820024614,
                    0.0
                ],
                "label": "Li",
                "properties": {}
            },
            {
                "species": [
                    {
                        "element": "Al",
                        "occu": 1
                    }
                ],
                "abc": [
                    0.82422476,
                    0.82422476,
                    0.5
                ],
                "xyz": [
                    4.26607653249877,
                    4.26607653249877,
                    3.134105675
                ],
                "label": "Al",
                "properties": {}
            },
            {
                "species": [
                    {
                        "element": "Al",
                        "occu": 1
                    }
                ],
                "abc": [
                    0.67577524,
                    0.32422476,
                    0.75
                ],
                "xyz": [
                    3.49772177750123,
                    1.6781437624987705,
                    4.701158512499999
                ],
                "label": "Al",
                "properties": {}
            },
            {
                "species": [
                    {
                        "element": "Al",
                        "occu": 1
                    }
                ],
                "abc": [
                    0.32422476,
                    0.67577524,
                    0.25
                ],
                "xyz": [
                    1.6781437624987705,
                    3.49772177750123,
                    1.5670528375
                ],
                "label": "Al",
                "properties": {}
            },
            {
                "species": [
                    {
                        "element": "Al",
                        "occu": 1
                    }
                ],
                "abc": [
                    0.17577524,
                    0.17577524,
                    0.0
                ],
                "xyz": [
                    0.9097890075012296,
                    0.9097890075012296,
                    0.0
                ],
                "label": "Al",
                "properties": {}
            },
            {
                "species": [
                    {
                        "element": "O",
                        "occu": 1
                    }
                ],
                "abc": [
                    0.29242317,
                    0.33516787,
                    0.22903673
                ],
                "xyz": [
                    1.513543008700562,
                    1.7347838284481998,
                    1.4356506305528853
                ],
                "label": "O",
                "properties": {}
            },
            {
                "species": [
                    {
                        "element": "O",
                        "occu": 1
                    }
                ],
                "abc": [
                    0.16483213,
                    0.79242317,
                    0.47903673
                ],
                "xyz": [
                    0.8531489415518002,
                    4.101475778700562,
                    3.0027034680528852
                ],
                "label": "O",
                "properties": {}
            },
            {
                "species": [
                    {
                        "element": "O",
                        "occu": 1
                    }
                ],
                "abc": [
                    0.79242317,
                    0.16483213,
                    0.52096327
                ],
                "xyz": [
                    4.101475778700562,
                    0.8531489415518002,
                    3.2655078819471144
                ],
                "label": "O",
                "properties": {}
            },
            {
                "species": [
                    {
                        "element": "O",
                        "occu": 1
                    }
                ],
                "abc": [
                    0.83516787,
                    0.20757683,
                    0.97903673
                ],
                "xyz": [
                    4.3227165984482,
                    1.0743897612994382,
                    6.1368091430528855
                ],
                "label": "O",
                "properties": {}
            },
            {
                "species": [
                    {
                        "element": "O",
                        "occu": 1
                    }
                ],
                "abc": [
                    0.20757683,
                    0.83516787,
                    0.02096327
                ],
                "xyz": [
                    1.0743897612994382,
                    4.3227165984482,
                    0.1314022069471145
                ],
                "label": "O",
                "properties": {}
            },
            {
                "species": [
                    {
                        "element": "O",
                        "occu": 1
                    }
                ],
                "abc": [
                    0.66483213,
                    0.70757683,
                    0.27096327
                ],
                "xyz": [
                    3.4410817115518,
                    3.6623225312994387,
                    1.6984550444471143
                ],
                "label": "O",
                "properties": {}
            },
            {
                "species": [
                    {
                        "element": "O",
                        "occu": 1
                    }
                ],
                "abc": [
                    0.33516787,
                    0.29242317,
                    0.77096327
                ],
                "xyz": [
                    1.7347838284481998,
                    1.513543008700562,
                    4.832560719447114
                ],
                "label": "O",
                "properties": {}
            },
            {
                "species": [
                    {
                        "element": "O",
                        "occu": 1
                    }
                ],
                "abc": [
                    0.70757683,
                    0.66483213,
                    0.72903673
                ],
                "xyz": [
                    3.6623225312994387,
                    3.4410817115518,
                    4.569756305552885
                ],
                "label": "O",
                "properties": {}
            }
        ]
    },
    "spacegroup": {
        "source": "spglib",
        "symbol": "P4_12_12",
        "number": 92,
        "point_group": "422",
        "crystal_system": "tetragonal",
        "hall": "P 4abw 2nw"
    },
    "dielectric": {
        "epsilon_ionic": [
            [
                3.90935842,
                -0.0,
                -0.0
            ],
            [
                -0.0,
                3.90935838,
                -0.0
            ],
            [
                -0.0,
                -0.0,
                2.37042303
            ]
        ],
        "epsilon_ionic_avg": 3.3963799433333333,
        "epsilon_ionic_eig": [
            3.90935842,
            3.90935838,
            2.37042303
        ],
        "epsilon_electronic": [
            [
                2.77898814,
                -0.0,
                0.0
            ],
            [
                -0.0,
                2.77898814,
                -0.0
            ],
            [
                0.0,
                -0.0,
                2.70787376
            ]
        ],
        "epsilon_electronic_avg": 2.755283346666667,
        "epsilon_electronic_eig": [
            2.77898814,
            2.77898814,
            2.70787376
        ]
    },
    "phonon": {
        "lowest_freq": -0.0309780141066102,
        "frequency": [
            -0.0309780141066102,
            -0.0309780141066102,
            -0.020186021139862526,
            3.624895076451529,
            5.485119018022002,
            5.485119018022002,
            6.8674990157906,
            7.760426824347079,
            7.786125451447942,
            7.977704845183685,
            8.032787080179261,
            8.721697318609827,
            8.721697318609827,
            9.421120807625678,
            9.511131561672356,
            9.511131561672356,
            9.88321874805803,
            10.576034907872225,
            10.576034907872225,
            10.778862334071603,
            10.941699789393049,
            12.46751014140886,
            13.108185979934849,
            13.108185979934849,
            13.820864299496298,
            13.857847257331912,
            13.857847257331912,
            14.706035973287287,
            14.788377824602101,
            14.788377824602101,
            14.911430169303568,
            14.969260267682884,
            15.88279394601099,
            16.018228649096713,
            16.018228649096713,
            18.11438413461565,
            18.84372895133156,
            19.69871084216869,
            19.965756186811642,
            19.965756186811642,
            23.167153011991793,
            23.384144093227935,
            23.82387041610862,
            23.82387041610862,
            24.024769459303307,
            24.050191872122063,
            24.8503114819423,
            24.8503114819423
        ]
    },
    "born_effective_charge": {
        "avg_abs_trace": 1.7398925,
        "tensors": [
            [
                [
                    1.00368,
                    -0.05567,
                    -0.01667
                ],
                [
                    -0.05567,
                    1.00368,
                    -0.01667
                ],
                [
                    0.0109,
                    0.01094,
                    1.02696
                ]
            ],
            [
                [
                    1.00368,
                    0.05567,
                    0.01667
                ],
                [
                    0.05567,
                    1.00368,
                    -0.01667
                ],
                [
                    -0.01094,
                    0.0109,
                    1.02696
                ]
            ],
            [
                [
                    1.00368,
                    -0.05567,
                    0.01667
                ],
                [
                    -0.05567,
                    1.00368,
                    0.01667
                ],
                [
                    -0.0109,
                    -0.01094,
                    1.02696
                ]
            ],
            [
                [
                    1.00368,
                    0.05567,
                    -0.01667
                ],
                [
                    0.05567,
                    1.00368,
                    0.01667
                ],
                [
                    0.01094,
                    -0.0109,
                    1.02696
                ]
            ],
            [
                [
                    2.51137,
                    0.08368,
                    0.06697
                ],
                [
                    0.08368,
                    2.51137,
                    -0.06697
                ],
                [
                    -0.11518,
                    0.11523,
                    2.38224
                ]
            ],
            [
                [
                    2.51143,
                    -0.08367,
                    0.06697
                ],
                [
                    -0.08368,
                    2.51137,
                    0.06697
                ],
                [
                    -0.11523,
                    -0.11518,
                    2.38224
                ]
            ],
            [
                [
                    2.51137,
                    -0.08368,
                    -0.06697
                ],
                [
                    -0.08367,
                    2.51143,
                    -0.06697
                ],
                [
                    0.11523,
                    0.11518,
                    2.38224
                ]
            ],
            [
                [
                    2.51143,
                    0.08367,
                    -0.06697
                ],
                [
                    0.08367,
                    2.51143,
                    0.06697
                ],
                [
                    0.11518,
                    -0.11523,
                    2.38224
                ]
            ],
            [
                [
                    -1.48864,
                    -0.17372,
                    -0.07816
                ],
                [
                    -0.15482,
                    -2.02649,
                    -0.23211
                ],
                [
                    -0.14103,
                    -0.2485,
                    -1.70461
                ]
            ],
            [
                [
                    -2.02638,
                    0.15477,
                    0.23209
                ],
                [
                    0.17372,
                    -1.48864,
                    -0.07816
                ],
                [
                    0.2485,
                    -0.14103,
                    -1.70461
                ]
            ],
            [
                [
                    -1.48864,
                    0.17372,
                    0.07816
                ],
                [
                    0.15477,
                    -2.02638,
                    -0.23209
                ],
                [
                    0.14117,
                    -0.24847,
                    -1.70459
                ]
            ],
            [
                [
                    -2.02649,
                    0.15482,
                    -0.23211
                ],
                [
                    0.17374,
                    -1.48864,
                    0.07811
                ],
                [
                    -0.2485,
                    0.14103,
                    -1.70461
                ]
            ],
            [
                [
                    -1.48864,
                    0.17374,
                    -0.07811
                ],
                [
                    0.15482,
                    -2.02649,
                    0.23211
                ],
                [
                    -0.14117,
                    0.24847,
                    -1.70459
                ]
            ],
            [
                [
                    -2.02638,
                    -0.15477,
                    -0.23209
                ],
                [
                    -0.17374,
                    -1.48864,
                    -0.07811
                ],
                [
                    -0.24847,
                    -0.14117,
                    -1.70459
                ]
            ],
            [
                [
                    -2.02649,
                    -0.15482,
                    0.23211
                ],
                [
                    -0.17372,
                    -1.48864,
                    0.07816
                ],
                [
                    0.24847,
                    0.14117,
                    -1.70459
                ]
            ],
            [
                [
                    -1.48864,
                    -0.17374,
                    0.07811
                ],
                [
                    -0.15477,
                    -2.02638,
                    0.23209
                ],
                [
                    0.14103,
                    0.2485,
                    -1.70461
                ]
            ]
        ]
    },
    "band_gap": 4.6269,
    "is_direct": false,
    "formula": "LiAlO2"
}