{
    "mp_id": "mp-30990",
    "nelements": 3,
    "nsites": 30,
    "elements": [
        "K",
        "O",
        "Si"
    ],
    "structure": {
        "@module": "pymatgen.core.structure",
        "@class": "Structure",
        "charge": null,
        "lattice": {
            "matrix": [
                [
                    6.48022538,
                    0.0,
                    -0.00067343
                ],
                [
                    0.0,
                    8.91511739,
                    0.0
                ],
                [
                    -6.23686733,
                    0.0,
                    8.98503773
                ]
            ],
            "a": 6.480225414991682,
            "b": 8.91511739,
            "c": 10.93752335318855,
            "alpha": 90.0,
            "beta": 124.77198666563805,
            "gamma": 90.0,
            "volume": 519.045885646808
        },
        "sites": [
            {
                "species": [
                    {
                        "element": "K",
                        "occu": 1
                    }
                ],
                "abc": [
                    0.20685732,
                    0.97273039,
                    0.45551112
                ],
                "xyz": [
                    -1.500480367676928,
                    8.672005615670482,
                    4.09264529570955
                ],
                "label": "K",
                "properties": {}
            },
            {
                "species": [
                    {
                        "element": "K",
                        "occu": 1
                    }
                ],
                "abc": [
                    0.20685732,
                    0.52726961,
                    0.95551112
                ],
                "xyz": [
                    -4.618914032676928,
                    4.700670469329519,
                    8.585164160709551
                ],
                "label": "K",
                "properties": {}
            },
            {
                "species": [
                    {
                        "element": "K",
                        "occu": 1
                    }
                ],
                "abc": [
                    0.79314268,
                    0.02726961,
                    0.54448888
                ],
                "xyz": [
                    1.7438384176769284,
                    0.24311177432951792,
                    4.89171900429045
                ],
                "label": "K",
                "properties": {}
            },
            {
                "species": [
                    {
                        "element": "K",
                        "occu": 1
                    }
                ],
                "abc": [
                    0.02981813,
                    0.14901762,
                    0.91398107
                ],
                "xyz": [
                    -5.507150472911303,
                    1.3285095754784118,
                    8.212134318032486
                ],
                "label": "K",
                "properties": {}
            },
            {
                "species": [
                    {
                        "element": "K",
                        "occu": 1
                    }
                ],
                "abc": [
                    0.97018187,
                    0.64901762,
                    0.58601893
                ],
                "xyz": [
                    2.632074857911303,
                    5.786068270478412,
                    5.264748846967516
                ],
                "label": "K",
                "properties": {}
            },
            {
                "species": [
                    {
                        "element": "K",
                        "occu": 1
                    }
                ],
                "abc": [
                    0.97018187,
                    0.85098238,
                    0.08601893
                ],
                "xyz": [
                    5.7505085229113035,
                    7.586607814521589,
                    0.7722299819675147
                ],
                "label": "K",
                "properties": {}
            },
            {
                "species": [
                    {
                        "element": "K",
                        "occu": 1
                    }
                ],
                "abc": [
                    0.02981813,
                    0.35098238,
                    0.41398107
                ],
                "xyz": [
                    -2.3887168079113037,
                    3.1290491195215884,
                    3.7196154530324854
                ],
                "label": "K",
                "properties": {}
            },
            {
                "species": [
                    {
                        "element": "K",
                        "occu": 1
                    }
                ],
                "abc": [
                    0.39678549,
                    0.21762234,
                    0.77700327
                ],
                "xyz": [
                    -2.274806907252433,
                    1.9401287077864928,
                    6.981136490030846
                ],
                "label": "K",
                "properties": {}
            },
            {
                "species": [
                    {
                        "element": "K",
                        "occu": 1
                    }
                ],
                "abc": [
                    0.60321451,
                    0.71762234,
                    0.72299673
                ],
                "xyz": [
                    -0.6002687077475666,
                    6.397687402786493,
                    6.495746674969154
                ],
                "label": "K",
                "properties": {}
            },
            {
                "species": [
                    {
                        "element": "K",
                        "occu": 1
                    }
                ],
                "abc": [
                    0.60321451,
                    0.78237766,
                    0.22299673
                ],
                "xyz": [
                    2.5181649572524334,
                    6.974988682213508,
                    2.003227809969154
                ],
                "label": "K",
                "properties": {}
            },
            {
                "species": [
                    {
                        "element": "K",
                        "occu": 1
                    }
                ],
                "abc": [
                    0.39678549,
                    0.28237766,
                    0.27700327
                ],
                "xyz": [
                    0.8436267577475673,
                    2.5174299872135073,
                    2.4886176250308467
                ],
                "label": "K",
                "properties": {}
            },
            {
                "species": [
                    {
                        "element": "K",
                        "occu": 1
                    }
                ],
                "abc": [
                    0.79314268,
                    0.47273039,
                    0.04448888
                ],
                "xyz": [
                    4.862272082676928,
                    4.214446920670483,
                    0.39920013929045
                ],
                "label": "K",
                "properties": {}
            },
            {
                "species": [
                    {
                        "element": "Si",
                        "occu": 1
                    }
                ],
                "abc": [
                    0.32599773,
                    0.86363306,
                    0.87457884
                ],
                "xyz": [
                    -3.34209343093691,
                    7.699390111784914,
                    7.857904338608319
                ],
                "label": "Si",
                "properties": {}
            },
            {
                "species": [
                    {
                        "element": "Si",
                        "occu": 1
                    }
                ],
                "abc": [
                    0.32599773,
                    0.63636694,
                    0.37457884
                ],
                "xyz": [
                    -0.22365976593690995,
                    5.673285973215087,
                    3.3653854736083195
                ],
                "label": "Si",
                "properties": {}
            },
            {
                "species": [
                    {
                        "element": "Si",
                        "occu": 1
                    }
                ],
                "abc": [
                    0.67400227,
                    0.13636694,
                    0.12542116
                ],
                "xyz": [
                    3.5854514809369107,
                    1.2157272782150865,
                    1.1264599613916806
                ],
                "label": "Si",
                "properties": {}
            },
            {
                "species": [
                    {
                        "element": "Si",
                        "occu": 1
                    }
                ],
                "abc": [
                    0.67400227,
                    0.36363306,
                    0.62542116
                ],
                "xyz": [
                    0.4670178159369103,
                    3.2418314167849136,
                    5.618978826391682
                ],
                "label": "Si",
                "properties": {}
            },
            {
                "species": [
                    {
                        "element": "O",
                        "occu": 1
                    }
                ],
                "abc": [
                    0.5,
                    0.0,
                    0.0
                ],
                "xyz": [
                    3.24011269,
                    0.0,
                    -0.000336715
                ],
                "label": "O",
                "properties": {}
            },
            {
                "species": [
                    {
                        "element": "O",
                        "occu": 1
                    }
                ],
                "abc": [
                    0.74091781,
                    0.41761682,
                    0.7873255
                ],
                "xyz": [
                    -0.10913029216989667,
                    3.7231029743385,
                    7.073650367010327
                ],
                "label": "O",
                "properties": {}
            },
            {
                "species": [
                    {
                        "element": "O",
                        "occu": 1
                    }
                ],
                "abc": [
                    0.25908219,
                    0.91761682,
                    0.7126745
                ],
                "xyz": [
                    -2.7659453228301025,
                    8.1806616693385,
                    6.4032327979896735
                ],
                "label": "O",
                "properties": {}
            },
            {
                "species": [
                    {
                        "element": "O",
                        "occu": 1
                    }
                ],
                "abc": [
                    0.25908219,
                    0.58238318,
                    0.2126745
                ],
                "xyz": [
                    0.3524883421698972,
                    5.1920144156615,
                    1.9107139329896732
                ],
                "label": "O",
                "properties": {}
            },
            {
                "species": [
                    {
                        "element": "O",
                        "occu": 1
                    }
                ],
                "abc": [
                    0.5,
                    0.5,
                    0.5
                ],
                "xyz": [
                    0.12167902500000016,
                    4.457558695,
                    4.49218215
                ],
                "label": "O",
                "properties": {}
            },
            {
                "species": [
                    {
                        "element": "O",
                        "occu": 1
                    }
                ],
                "abc": [
                    0.92646014,
                    0.15936507,
                    0.12619404
                ],
                "xyz": [
                    5.21661502746964,
                    1.4207583069155674,
                    1.133234304649049
                ],
                "label": "O",
                "properties": {}
            },
            {
                "species": [
                    {
                        "element": "O",
                        "occu": 1
                    }
                ],
                "abc": [
                    0.07353986,
                    0.65936507,
                    0.37380596
                ],
                "xyz": [
                    -1.85482331246964,
                    5.878317001915568,
                    3.3586111303509507
                ],
                "label": "O",
                "properties": {}
            },
            {
                "species": [
                    {
                        "element": "O",
                        "occu": 1
                    }
                ],
                "abc": [
                    0.07353986,
                    0.84063493,
                    0.87380596
                ],
                "xyz": [
                    -4.97325697746964,
                    7.494359083084433,
                    7.851129995350951
                ],
                "label": "O",
                "properties": {}
            },
            {
                "species": [
                    {
                        "element": "O",
                        "occu": 1
                    }
                ],
                "abc": [
                    0.92646014,
                    0.34063493,
                    0.62619404
                ],
                "xyz": [
                    2.0981813624696404,
                    3.036800388084433,
                    5.625753169649049
                ],
                "label": "O",
                "properties": {}
            },
            {
                "species": [
                    {
                        "element": "O",
                        "occu": 1
                    }
                ],
                "abc": [
                    0.49347838,
                    0.28556358,
                    0.06445594
                ],
                "xyz": [
                    2.795847976146844,
                    2.545832838008656,
                    0.5788067296771728
                ],
                "label": "O",
                "properties": {}
            },
            {
                "species": [
                    {
                        "element": "O",
                        "occu": 1
                    }
                ],
                "abc": [
                    0.50652162,
                    0.78556358,
                    0.43554406
                ],
                "xyz": [
                    0.5659437388531563,
                    7.003391533008657,
                    3.9130387053228275
                ],
                "label": "O",
                "properties": {}
            },
            {
                "species": [
                    {
                        "element": "O",
                        "occu": 1
                    }
                ],
                "abc": [
                    0.50652162,
                    0.71443642,
                    0.93554406
                ],
                "xyz": [
                    -2.552489926146844,
                    6.369284551991344,
                    8.405557570322829
                ],
                "label": "O",
                "properties": {}
            },
            {
                "species": [
                    {
                        "element": "O",
                        "occu": 1
                    }
                ],
                "abc": [
                    0.49347838,
                    0.21443642,
                    0.56445594
                ],
                "xyz": [
                    -0.32258568885315597,
                    1.9117258569913438,
                    5.071325594677173
                ],
                "label": "O",
                "properties": {}
            },
            {
                "species": [
                    {
                        "element": "O",
                        "occu": 1
                    }
                ],
                "abc": [
                    0.74091781,
                    0.08238318,
                    0.2873255
                ],
                "xyz": [
                    3.009303372830103,
                    0.7344557206615002,
                    2.581131502010327
                ],
                "label": "O",
                "properties": {}
            }
        ]
    },
    "spacegroup": {
        "source": "spglib",
        "symbol": "P2_1/c",
        "number": 14,
        "point_group": "2/m",
        "crystal_system": "monoclinic",
        "hall": "-P 2ybc"
    },
    "dielectric": {
        "epsilon_ionic": [
            [
                4.11492092,
                -1e-08,
                -0.28539717
            ],
            [
                -1e-08,
                4.55277508,
                -1e-08
            ],
            [
                -0.28539717,
                -1e-08,
                5.45605795
            ]
        ],
        "epsilon_ionic_avg": 4.707917983333334,
        "epsilon_ionic_eig": [
            4.056713970296836,
            5.514264899703166,
            4.55277508
        ],
        "epsilon_electronic": [
            [
                2.57172464,
                0.0,
                0.00621901
            ],
            [
                0.0,
                2.57714203,
                0.0
            ],
            [
                0.00621861,
                0.0,
                2.57926377
            ]
        ],
        "epsilon_electronic_avg": 2.57604348,
        "epsilon_electronic_eig": [
            2.568222120150019,
            2.582766289849981,
            2.57714203
        ]
    },
    "phonon": {
        "lowest_freq": -0.13453111073396026,
        "frequency": [
            -0.13453111073396026,
            -0.0749706928078699,
            -0.03244719902884631,
            1.2374834478105525,
            2.184506464472446,
            2.2866802084727396,
            2.40925417153576,
            2.4304829504422716,
            2.64305310624122,
            2.746955738493793,
            2.912685072551641,
            2.991568479543013,
            3.090229159459934,
            3.1086126817304214,
            3.1319589921773487,
            3.1643010210127245,
            3.2786301953480437,
            3.4322278878147428,
            3.4348522988833716,
            3.5268166342323135,
            3.5599592574239627,
            3.7141462121341418,
            3.8277244046472783,
            3.850470283085797,
            3.867493790968317,
            3.9008277239971787,
            4.033127501538627,
            4.067317398137933,
            4.0752583040447075,
            4.1266483550431,
            4.2217758506903635,
            4.280533480816734,
            4.373698398814825,
            4.523042601956688,
            4.645447045329319,
            4.671127003040302,
            4.773990414503913,
            4.812999893874957,
            4.876751124531481,
            4.8808440197464416,
            4.922576912180922,
            5.0787152714894575,
            5.119675886175876,
            5.305435329212289,
            5.380790739535906,
            5.520410896222052,
            5.652755263151161,
            5.747665855921572,
            5.828397516528208,
            6.08727091470431,
            6.1721165265357625,
            6.33750061226484,
            6.470003057295424,
            6.776067515770695,
            8.219639178120726,
            8.5392503470034,
            8.646216366370911,
            9.005985730786144,
            9.155881870200044,
            9.453997863379028,
            10.300482189002185,
            10.307736234864535,
            10.365361100132404,
            10.60348403161672,
            13.074501699181704,
            13.18426769595634,
            13.584333796273764,
            13.638955294456732,
            13.705811674325119,
            13.747513305165231,
            13.972118659045199,
            14.270517342978845,
            14.454119247046311,
            14.491981386876486,
            17.535445165777883,
            17.873297585138648,
            23.62725509682931,
            23.633054054480965,
            25.329473098172496,
            25.476353143961536,
            26.70138069470551,
            26.839284152934272,
            26.86117343434647,
            26.997143927904137,
            27.0171782483271,
            27.112670157648175,
            27.22739981514776,
            28.07359407495873,
            28.07949260794553,
            28.22492839401067
        ]
    },
    "born_effective_charge": {
        "avg_abs_trace": 1.6330877777777777,
        "tensors": [
            [
                [
                    1.08386,
                    -0.02704,
                    0.02609
                ],
                [
                    -0.03314,
                    1.25979,
                    0.00483
                ],
                [
                    0.02237,
                    -0.00629,
                    1.13771
                ]
            ],
            [
                [
                    1.08386,
                    0.02704,
                    0.02609
                ],
                [
                    0.03305,
                    1.25981,
                    -0.00485
                ],
                [
                    0.02237,
                    0.00629,
                    1.13771
                ]
            ],
            [
                [
                    1.08383,
                    -0.02705,
                    0.02611
                ],
                [
                    -0.03305,
                    1.25981,
                    0.00485
                ],
                [
                    0.02236,
                    -0.00627,
                    1.13772
                ]
            ],
            [
                [
                    1.22937,
                    -0.09202,
                    0.00683
                ],
                [
                    -0.091,
                    1.1423,
                    -0.05987
                ],
                [
                    0.03324,
                    -0.0547,
                    1.09519
                ]
            ],
            [
                [
                    1.22934,
                    0.09206,
                    0.00678
                ],
                [
                    0.091,
                    1.1423,
                    0.05987
                ],
                [
                    0.03322,
                    0.0547,
                    1.09521
                ]
            ],
            [
                [
                    1.22934,
                    -0.09206,
                    0.00678
                ],
                [
                    -0.091,
                    1.14233,
                    -0.05986
                ],
                [
                    0.03322,
                    -0.0547,
                    1.09521
                ]
            ],
            [
                [
                    1.22937,
                    0.09202,
                    0.00683
                ],
                [
                    0.091,
                    1.14233,
                    0.05986
                ],
                [
                    0.03324,
                    0.0547,
                    1.09519
                ]
            ],
            [
                [
                    1.16342,
                    0.08075,
                    -0.05824
                ],
                [
                    0.09821,
                    1.08988,
                    -0.07621
                ],
                [
                    -0.08635,
                    -0.08009,
                    1.15249
                ]
            ],
            [
                [
                    1.16344,
                    -0.08075,
                    -0.05823
                ],
                [
                    -0.09821,
                    1.08988,
                    0.07621
                ],
                [
                    -0.08639,
                    0.0801,
                    1.15248
                ]
            ],
            [
                [
                    1.16344,
                    0.08075,
                    -0.05823
                ],
                [
                    0.0982,
                    1.08988,
                    -0.07623
                ],
                [
                    -0.08639,
                    -0.0801,
                    1.15248
                ]
            ],
            [
                [
                    1.16342,
                    -0.08075,
                    -0.05824
                ],
                [
                    -0.0982,
                    1.08988,
                    0.07623
                ],
                [
                    -0.08635,
                    0.08009,
                    1.15249
                ]
            ],
            [
                [
                    1.08383,
                    0.02705,
                    0.02611
                ],
                [
                    0.03314,
                    1.25979,
                    -0.00483
                ],
                [
                    0.02236,
                    0.00627,
                    1.13772
                ]
            ],
            [
                [
                    2.58309,
                    0.07151,
                    0.05579
                ],
                [
                    0.05643,
                    2.69517,
                    0.14938
                ],
                [
                    0.05268,
                    0.15844,
                    2.73993
                ]
            ],
            [
                [
                    2.58309,
                    -0.07151,
                    0.05579
                ],
                [
                    -0.0564,
                    2.69519,
                    -0.14939
                ],
                [
                    0.05268,
                    -0.15844,
                    2.73993
                ]
            ],
            [
                [
                    2.58313,
                    0.07153,
                    0.05579
                ],
                [
                    0.0564,
                    2.69519,
                    0.14939
                ],
                [
                    0.05269,
                    0.15844,
                    2.73991
                ]
            ],
            [
                [
                    2.58313,
                    -0.07153,
                    0.05579
                ],
                [
                    -0.05643,
                    2.69517,
                    -0.14938
                ],
                [
                    0.05269,
                    -0.15844,
                    2.73991
                ]
            ],
            [
                [
                    -1.18126,
                    -0.33204,
                    -0.34765
                ],
                [
                    -0.3284,
                    -2.37523,
                    -1.07391
                ],
                [
                    -0.3787,
                    -1.04596,
                    -2.1339
                ]
            ],
            [
                [
                    -1.50385,
                    0.0622,
                    0.23181
                ],
                [
                    0.03572,
                    -1.54301,
                    -0.18681
                ],
                [
                    0.30693,
                    -0.24108,
                    -2.11849
                ]
            ],
            [
                [
                    -1.50379,
                    -0.06218,
                    0.23169
                ],
                [
                    -0.03572,
                    -1.54301,
                    0.18681
                ],
                [
                    0.30695,
                    0.24114,
                    -2.11862
                ]
            ],
            [
                [
                    -1.50379,
                    0.06218,
                    0.23169
                ],
                [
                    0.03562,
                    -1.54294,
                    -0.18662
                ],
                [
                    0.30695,
                    -0.24114,
                    -2.11862
                ]
            ],
            [
                [
                    -1.18126,
                    0.33204,
                    -0.34765
                ],
                [
                    0.3284,
                    -2.37523,
                    1.07391
                ],
                [
                    -0.3787,
                    1.04596,
                    -2.1339
                ]
            ],
            [
                [
                    -2.26774,
                    -0.11943,
                    0.04749
                ],
                [
                    -0.15939,
                    -1.48176,
                    -0.0256
                ],
                [
                    -0.02836,
                    -0.02072,
                    -1.41956
                ]
            ],
            [
                [
                    -2.26736,
                    0.11937,
                    0.04753
                ],
                [
                    0.15939,
                    -1.48176,
                    0.0256
                ],
                [
                    -0.02837,
                    0.02071,
                    -1.4196
                ]
            ],
            [
                [
                    -2.26736,
                    -0.11937,
                    0.04753
                ],
                [
                    -0.15954,
                    -1.48183,
                    -0.02552
                ],
                [
                    -0.02837,
                    -0.02071,
                    -1.4196
                ]
            ],
            [
                [
                    -2.26774,
                    0.11943,
                    0.04749
                ],
                [
                    0.15954,
                    -1.48183,
                    0.02552
                ],
                [
                    -0.02836,
                    0.02072,
                    -1.41956
                ]
            ],
            [
                [
                    -1.69776,
                    0.27252,
                    -0.13591
                ],
                [
                    0.3481,
                    -1.97474,
                    0.28283
                ],
                [
                    -0.11111,
                    0.18126,
                    -1.52024
                ]
            ],
            [
                [
                    -1.69772,
                    -0.27235,
                    -0.13587
                ],
                [
                    -0.3481,
                    -1.97474,
                    -0.28283
                ],
                [
                    -0.11116,
                    -0.18136,
                    -1.52025
                ]
            ],
            [
                [
                    -1.69772,
                    0.27235,
                    -0.13587
                ],
                [
                    0.34814,
                    -1.97483,
                    0.28286
                ],
                [
                    -0.11116,
                    0.18136,
                    -1.52025
                ]
            ],
            [
                [
                    -1.69776,
                    -0.27252,
                    -0.13591
                ],
                [
                    -0.34814,
                    -1.97483,
                    -0.28286
                ],
                [
                    -0.11111,
                    -0.18126,
                    -1.52024
                ]
            ],
            [
                [
                    -1.50385,
                    -0.0622,
                    0.23181
                ],
                [
                    -0.03562,
                    -1.54294,
                    0.18662
                ],
                [
                    0.30693,
                    0.24108,
                    -2.11849
                ]
            ]
        ]
    },
    "band_gap": 3.5313999999999997,
    "is_direct": false,
    "formula": "K6Si2O7"
}