{
    "mp_id": "mp-30972",
    "nelements": 3,
    "nsites": 26,
    "elements": [
        "Na",
        "O",
        "Sb"
    ],
    "structure": {
        "@module": "pymatgen.core.structure",
        "@class": "Structure",
        "charge": null,
        "lattice": {
            "matrix": [
                [
                    5.5585199,
                    -8.25789865,
                    0.00777955
                ],
                [
                    5.5585199,
                    8.25789865,
                    0.00777955
                ],
                [
                    -2.52196824,
                    0.0,
                    5.07385017
                ]
            ],
            "a": 9.954400741067541,
            "b": 9.954400741067541,
            "c": 5.666063832254075,
            "alpha": 104.34994072395561,
            "beta": 104.34994072395561,
            "gamma": 112.1097286380705,
            "volume": 466.1206718661127
        },
        "sites": [
            {
                "species": [
                    {
                        "element": "Na",
                        "occu": 1
                    }
                ],
                "abc": [
                    0.51363605,
                    0.32781884,
                    0.42912746
                ],
                "xyz": [
                    3.5949979259854405,
                    -1.5344596876057661,
                    2.1838745762621676
                ],
                "label": "Na",
                "properties": {}
            },
            {
                "species": [
                    {
                        "element": "Na",
                        "occu": 1
                    }
                ],
                "abc": [
                    0.67218116,
                    0.48636395,
                    0.07087254
                ],
                "xyz": [
                    6.261057754014559,
                    -1.5344596876057661,
                    0.36860960873783233
                ],
                "label": "Na",
                "properties": {}
            },
            {
                "species": [
                    {
                        "element": "Na",
                        "occu": 1
                    }
                ],
                "abc": [
                    0.48636395,
                    0.67218116,
                    0.57087254
                ],
                "xyz": [
                    5.0000736340145595,
                    1.5344596876057661,
                    2.9055346937378324
                ],
                "label": "Na",
                "properties": {}
            },
            {
                "species": [
                    {
                        "element": "Na",
                        "occu": 1
                    }
                ],
                "abc": [
                    0.32781884,
                    0.51363605,
                    0.92912746
                ],
                "xyz": [
                    2.3340138059854407,
                    1.5344596876057661,
                    4.720799661262167
                ],
                "label": "Na",
                "properties": {}
            },
            {
                "species": [
                    {
                        "element": "Sb",
                        "occu": 1
                    }
                ],
                "abc": [
                    0.39516257,
                    0.89005605,
                    0.18044626
                ],
                "xyz": [
                    6.688833538373756,
                    4.086780200385802,
                    0.9255557094920852
                ],
                "label": "Sb",
                "properties": {}
            },
            {
                "species": [
                    {
                        "element": "Sb",
                        "occu": 1
                    }
                ],
                "abc": [
                    0.89005605,
                    0.39516257,
                    0.68044626
                ],
                "xyz": [
                    5.427849418373756,
                    -4.086780200385802,
                    3.4624807944920852
                ],
                "label": "Sb",
                "properties": {}
            },
            {
                "species": [
                    {
                        "element": "Sb",
                        "occu": 1
                    }
                ],
                "abc": [
                    0.60483743,
                    0.10994395,
                    0.81955374
                ],
                "xyz": [
                    1.9062380216262444,
                    -4.086780200385802,
                    4.163853560507915
                ],
                "label": "Sb",
                "properties": {}
            },
            {
                "species": [
                    {
                        "element": "Sb",
                        "occu": 1
                    }
                ],
                "abc": [
                    0.10994395,
                    0.60483743,
                    0.31955374
                ],
                "xyz": [
                    3.1672221416262447,
                    4.086780200385802,
                    1.6269284755079148
                ],
                "label": "Sb",
                "properties": {}
            },
            {
                "species": [
                    {
                        "element": "Sb",
                        "occu": 1
                    }
                ],
                "abc": [
                    0.28065477,
                    0.14244242,
                    0.78213439
                ],
                "xyz": [
                    0.37927605925730745,
                    -1.1413435784783277,
                    3.9717242134088107
                ],
                "label": "Sb",
                "properties": {}
            },
            {
                "species": [
                    {
                        "element": "Sb",
                        "occu": 1
                    }
                ],
                "abc": [
                    0.85755758,
                    0.71934523,
                    0.71786561
                ],
                "xyz": [
                    6.954811380742694,
                    -1.1413435784783283,
                    3.6546101415911894
                ],
                "label": "Sb",
                "properties": {}
            },
            {
                "species": [
                    {
                        "element": "Sb",
                        "occu": 1
                    }
                ],
                "abc": [
                    0.71934523,
                    0.85755758,
                    0.21786561
                ],
                "xyz": [
                    8.215795500742693,
                    1.1413435784783283,
                    1.117685056591189
                ],
                "label": "Sb",
                "properties": {}
            },
            {
                "species": [
                    {
                        "element": "Sb",
                        "occu": 1
                    }
                ],
                "abc": [
                    0.14244242,
                    0.28065477,
                    0.28213439
                ],
                "xyz": [
                    1.6402601792573075,
                    1.1413435784783277,
                    1.4347991284088109
                ],
                "label": "Sb",
                "properties": {}
            },
            {
                "species": [
                    {
                        "element": "O",
                        "occu": 1
                    }
                ],
                "abc": [
                    0.49862738,
                    0.77464025,
                    0.98474032
                ],
                "xyz": [
                    4.593999647693401,
                    2.2792863065556253,
                    5.0063302892288215
                ],
                "label": "O",
                "properties": {}
            },
            {
                "species": [
                    {
                        "element": "O",
                        "occu": 1
                    }
                ],
                "abc": [
                    0.0190241,
                    0.38799523,
                    0.04764479
                ],
                "xyz": [
                    2.1422663983081973,
                    3.0469261963159746,
                    0.2449089530698158
                ],
                "label": "O",
                "properties": {}
            },
            {
                "species": [
                    {
                        "element": "O",
                        "occu": 1
                    }
                ],
                "abc": [
                    0.50137262,
                    0.22535975,
                    0.01525968
                ],
                "xyz": [
                    4.0010719123066,
                    -2.2792863065556253,
                    0.0830789807711791
                ],
                "label": "O",
                "properties": {}
            },
            {
                "species": [
                    {
                        "element": "O",
                        "occu": 1
                    }
                ],
                "abc": [
                    0.77464025,
                    0.49862738,
                    0.48474032
                ],
                "xyz": [
                    5.854983767693401,
                    -2.2792863065556253,
                    2.469405204228821
                ],
                "label": "O",
                "properties": {}
            },
            {
                "species": [
                    {
                        "element": "O",
                        "occu": 1
                    }
                ],
                "abc": [
                    0.69375769,
                    0.30624231,
                    0.75
                ],
                "xyz": [
                    3.66704372,
                    -3.2000627333562366,
                    3.8131671775
                ],
                "label": "O",
                "properties": {}
            },
            {
                "species": [
                    {
                        "element": "O",
                        "occu": 1
                    }
                ],
                "abc": [
                    0.30624231,
                    0.69375769,
                    0.25
                ],
                "xyz": [
                    4.92802784,
                    3.2000627333562366,
                    1.2762420925
                ],
                "label": "O",
                "properties": {}
            },
            {
                "species": [
                    {
                        "element": "O",
                        "occu": 1
                    }
                ],
                "abc": [
                    0.38799523,
                    0.0190241,
                    0.54764479
                ],
                "xyz": [
                    0.8812822783081975,
                    -3.0469261963159746,
                    2.7818340380698157
                ],
                "label": "O",
                "properties": {}
            },
            {
                "species": [
                    {
                        "element": "O",
                        "occu": 1
                    }
                ],
                "abc": [
                    0.9809759,
                    0.61200477,
                    0.95235521
                ],
                "xyz": [
                    6.452805161691803,
                    -3.046926196315974,
                    4.844500316930184
                ],
                "label": "O",
                "properties": {}
            },
            {
                "species": [
                    {
                        "element": "O",
                        "occu": 1
                    }
                ],
                "abc": [
                    0.61200477,
                    0.9809759,
                    0.45235521
                ],
                "xyz": [
                    7.713789281691803,
                    3.046926196315974,
                    2.3075752319301843
                ],
                "label": "O",
                "properties": {}
            },
            {
                "species": [
                    {
                        "element": "O",
                        "occu": 1
                    }
                ],
                "abc": [
                    0.70564477,
                    0.67952109,
                    0.89376258
                ],
                "xyz": [
                    5.445431156750155,
                    -0.21572670180503195,
                    4.545593385538801
                ],
                "label": "O",
                "properties": {}
            },
            {
                "species": [
                    {
                        "element": "O",
                        "occu": 1
                    }
                ],
                "abc": [
                    0.67952109,
                    0.70564477,
                    0.39376258
                ],
                "xyz": [
                    6.706415276750155,
                    0.21572670180503195,
                    2.0086683005388015
                ],
                "label": "O",
                "properties": {}
            },
            {
                "species": [
                    {
                        "element": "O",
                        "occu": 1
                    }
                ],
                "abc": [
                    0.29435523,
                    0.32047891,
                    0.10623742
                ],
                "xyz": [
                    3.1496404032498457,
                    0.21572670180503195,
                    0.5438158844611984
                ],
                "label": "O",
                "properties": {}
            },
            {
                "species": [
                    {
                        "element": "O",
                        "occu": 1
                    }
                ],
                "abc": [
                    0.22535975,
                    0.50137262,
                    0.51525968
                ],
                "xyz": [
                    2.7400877923066,
                    2.2792863065556253,
                    2.620004065771179
                ],
                "label": "O",
                "properties": {}
            },
            {
                "species": [
                    {
                        "element": "O",
                        "occu": 1
                    }
                ],
                "abc": [
                    0.32047891,
                    0.29435523,
                    0.60623742
                ],
                "xyz": [
                    1.8886562832498457,
                    -0.21572670180503195,
                    3.0807409694611985
                ],
                "label": "O",
                "properties": {}
            }
        ]
    },
    "spacegroup": {
        "source": "spglib",
        "symbol": "C2/c",
        "number": 15,
        "point_group": "2/m",
        "crystal_system": "monoclinic",
        "hall": "-C 2yc"
    },
    "dielectric": {
        "epsilon_ionic": [
            [
                5.25349375,
                -1e-08,
                0.41747919
            ],
            [
                -1e-08,
                13.24801152,
                -1e-08
            ],
            [
                0.41747919,
                -1e-08,
                7.97983847
            ]
        ],
        "epsilon_ionic_avg": 8.82711458,
        "epsilon_ionic_eig": [
            5.190998632237031,
            8.04233358776297,
            13.24801152
        ],
        "epsilon_electronic": [
            [
                3.78366136,
                0.0,
                -0.29260116
            ],
            [
                0.0,
                4.38504499,
                0.0
            ],
            [
                -0.29260579,
                0.0,
                4.04366321
            ]
        ],
        "epsilon_electronic_avg": 4.070789853333333,
        "epsilon_electronic_eig": [
            3.593479471473771,
            4.2338450985262295,
            4.38504499
        ]
    },
    "phonon": {
        "lowest_freq": -0.07062020197488261,
        "frequency": [
            -0.07062020197488261,
            -0.05999444314415913,
            -0.020915471829561275,
            1.3300228770413034,
            1.4205280136192822,
            1.605605021974808,
            1.7230483212050458,
            1.9923726784356213,
            2.004892667184009,
            2.3856629685508186,
            2.6190130280064023,
            2.866482813101003,
            2.873932692607817,
            2.955099895614009,
            3.3375460612816954,
            3.480509969439734,
            3.5170244547468696,
            3.5429831340944755,
            3.6960142622153906,
            3.8047418946527793,
            4.117026214184892,
            4.1475479105092115,
            4.220102368881061,
            4.299174672431519,
            4.754894014920259,
            5.241106895268371,
            5.279980248178873,
            5.466410647590618,
            5.501837570143412,
            5.5627039195687535,
            5.911313261408998,
            6.004320624155027,
            6.312749938029409,
            6.482098070999227,
            6.587650608425248,
            6.650063383439732,
            6.720321208789275,
            6.737554591691087,
            7.017029797878665,
            7.045829833263557,
            7.455081985285467,
            7.476060126494586,
            7.5672184526134165,
            7.5795534470073775,
            7.8192145818461585,
            8.082043483397555,
            8.610298195416823,
            8.723929258194616,
            9.420410626118274,
            9.511915058549183,
            9.584064981057656,
            10.993232910197511,
            11.008320875408582,
            11.999237170637453,
            12.126951680835544,
            12.133466151858922,
            13.193647926790032,
            13.245672374150905,
            13.857270796464588,
            13.897691867609907,
            14.622545575599526,
            14.656338862312753,
            15.002390472894156,
            15.24546225206861,
            16.30609785431479,
            16.561574679656395,
            16.753324129765,
            17.228122378628704,
            17.527244588108672,
            17.68968878052037,
            17.789350866882796,
            18.227900187537138,
            18.22913737100773,
            19.280641926356292,
            19.916271046306466,
            20.25178182493923,
            20.341665390596077,
            20.89875710068278
        ]
    },
    "born_effective_charge": {
        "avg_abs_trace": 2.2831358974358973,
        "tensors": [
            [
                [
                    1.07671,
                    -0.04944,
                    0.0353
                ],
                [
                    -0.00931,
                    1.05156,
                    -0.03582
                ],
                [
                    0.1504,
                    -0.0758,
                    1.13803
                ]
            ],
            [
                [
                    1.0767,
                    0.04951,
                    0.03528
                ],
                [
                    0.00931,
                    1.05156,
                    0.03582
                ],
                [
                    0.15043,
                    0.07569,
                    1.138
                ]
            ],
            [
                [
                    1.0767,
                    -0.04951,
                    0.03528
                ],
                [
                    -0.00932,
                    1.05156,
                    -0.03582
                ],
                [
                    0.15043,
                    -0.07569,
                    1.138
                ]
            ],
            [
                [
                    1.07671,
                    0.04944,
                    0.0353
                ],
                [
                    0.00932,
                    1.05156,
                    0.03582
                ],
                [
                    0.1504,
                    0.0758,
                    1.13803
                ]
            ],
            [
                [
                    3.18783,
                    0.17451,
                    -0.31236
                ],
                [
                    -0.30528,
                    2.96606,
                    1.06354
                ],
                [
                    0.02549,
                    0.54334,
                    3.14116
                ]
            ],
            [
                [
                    3.18783,
                    -0.17451,
                    -0.31236
                ],
                [
                    0.30531,
                    2.96605,
                    -1.06355
                ],
                [
                    0.02549,
                    -0.54334,
                    3.14116
                ]
            ],
            [
                [
                    3.18782,
                    0.17434,
                    -0.31223
                ],
                [
                    -0.30531,
                    2.96605,
                    1.06355
                ],
                [
                    0.02615,
                    0.54322,
                    3.14061
                ]
            ],
            [
                [
                    3.18782,
                    -0.17434,
                    -0.31223
                ],
                [
                    0.30528,
                    2.96606,
                    -1.06354
                ],
                [
                    0.02615,
                    -0.54322,
                    3.14061
                ]
            ],
            [
                [
                    1.99884,
                    -0.42053,
                    -0.68643
                ],
                [
                    0.17453,
                    4.5584,
                    0.76258
                ],
                [
                    -0.83901,
                    0.93377,
                    3.14252
                ]
            ],
            [
                [
                    1.99848,
                    0.42108,
                    -0.68641
                ],
                [
                    -0.17453,
                    4.5584,
                    -0.76258
                ],
                [
                    -0.83852,
                    -0.93442,
                    3.14243
                ]
            ],
            [
                [
                    1.99848,
                    -0.42108,
                    -0.68641
                ],
                [
                    0.1747,
                    4.55839,
                    0.76276
                ],
                [
                    -0.83852,
                    0.93442,
                    3.14243
                ]
            ],
            [
                [
                    1.99884,
                    0.42053,
                    -0.68643
                ],
                [
                    -0.1747,
                    4.55839,
                    -0.76276
                ],
                [
                    -0.83901,
                    -0.93377,
                    3.14252
                ]
            ],
            [
                [
                    -1.57025,
                    0.61385,
                    0.07629
                ],
                [
                    0.79083,
                    -2.96137,
                    0.08447
                ],
                [
                    -0.17063,
                    -0.24613,
                    -1.70991
                ]
            ],
            [
                [
                    -1.28426,
                    -0.64432,
                    -0.16124
                ],
                [
                    -0.71328,
                    -2.58602,
                    1.22626
                ],
                [
                    0.19435,
                    0.74333,
                    -2.81963
                ]
            ],
            [
                [
                    -1.57035,
                    0.61358,
                    0.07614
                ],
                [
                    0.79079,
                    -2.96129,
                    0.08457
                ],
                [
                    -0.17125,
                    -0.24647,
                    -1.70961
                ]
            ],
            [
                [
                    -1.57025,
                    -0.61385,
                    0.07629
                ],
                [
                    -0.79079,
                    -2.96129,
                    -0.08457
                ],
                [
                    -0.17063,
                    0.24613,
                    -1.70991
                ]
            ],
            [
                [
                    -3.83781,
                    -4e-05,
                    0.76442
                ],
                [
                    0.0,
                    -1.18706,
                    0.0
                ],
                [
                    -0.13848,
                    -0.00015,
                    -0.95388
                ]
            ],
            [
                [
                    -3.83781,
                    4e-05,
                    0.76442
                ],
                [
                    0.0,
                    -1.18694,
                    0.0
                ],
                [
                    -0.13848,
                    0.00015,
                    -0.95388
                ]
            ],
            [
                [
                    -1.28426,
                    0.64432,
                    -0.16124
                ],
                [
                    0.71334,
                    -2.5861,
                    -1.22617
                ],
                [
                    0.19435,
                    -0.74333,
                    -2.81963
                ]
            ],
            [
                [
                    -1.28407,
                    -0.64456,
                    -0.16202
                ],
                [
                    -0.71334,
                    -2.5861,
                    1.22617
                ],
                [
                    0.19382,
                    0.74364,
                    -2.81935
                ]
            ],
            [
                [
                    -1.28407,
                    0.64456,
                    -0.16202
                ],
                [
                    0.71328,
                    -2.58602,
                    -1.22626
                ],
                [
                    0.19382,
                    -0.74364,
                    -2.81935
                ]
            ],
            [
                [
                    -1.48981,
                    0.55023,
                    0.66641
                ],
                [
                    0.68925,
                    -2.43501,
                    -1.53508
                ],
                [
                    0.70843,
                    -1.34056,
                    -2.41528
                ]
            ],
            [
                [
                    -1.48981,
                    -0.55023,
                    0.66641
                ],
                [
                    -0.68945,
                    -2.43523,
                    1.53517
                ],
                [
                    0.70843,
                    1.34056,
                    -2.41528
                ]
            ],
            [
                [
                    -1.48983,
                    0.55056,
                    0.66686
                ],
                [
                    0.68945,
                    -2.43523,
                    -1.53517
                ],
                [
                    0.70883,
                    -1.341,
                    -2.41509
                ]
            ],
            [
                [
                    -1.57035,
                    -0.61358,
                    0.07614
                ],
                [
                    -0.79083,
                    -2.96137,
                    -0.08447
                ],
                [
                    -0.17125,
                    0.24647,
                    -1.70961
                ]
            ],
            [
                [
                    -1.48983,
                    -0.55056,
                    0.66686
                ],
                [
                    -0.68925,
                    -2.43501,
                    1.53508
                ],
                [
                    0.70883,
                    1.341,
                    -2.41509
                ]
            ]
        ]
    },
    "band_gap": 2.92,
    "is_direct": false,
    "formula": "Na2Sb4O7"
}