{
    "mp_id": "mp-3163",
    "nelements": 3,
    "nsites": 5,
    "elements": [
        "Ba",
        "O",
        "Sn"
    ],
    "structure": {
        "@module": "pymatgen.core.structure",
        "@class": "Structure",
        "charge": null,
        "lattice": {
            "matrix": [
                [
                    4.13679783,
                    0.0,
                    0.0
                ],
                [
                    0.0,
                    4.13679783,
                    0.0
                ],
                [
                    0.0,
                    0.0,
                    4.13679783
                ]
            ],
            "a": 4.13679783,
            "b": 4.13679783,
            "c": 4.13679783,
            "alpha": 90.0,
            "beta": 90.0,
            "gamma": 90.0,
            "volume": 70.79341958171673
        },
        "sites": [
            {
                "species": [
                    {
                        "element": "Ba",
                        "occu": 1
                    }
                ],
                "abc": [
                    0.5,
                    0.5,
                    0.5
                ],
                "xyz": [
                    2.068398915,
                    2.068398915,
                    2.068398915
                ],
                "label": "Ba",
                "properties": {}
            },
            {
                "species": [
                    {
                        "element": "Sn",
                        "occu": 1
                    }
                ],
                "abc": [
                    0.0,
                    0.0,
                    0.0
                ],
                "xyz": [
                    0.0,
                    0.0,
                    0.0
                ],
                "label": "Sn",
                "properties": {}
            },
            {
                "species": [
                    {
                        "element": "O",
                        "occu": 1
                    }
                ],
                "abc": [
                    0.0,
                    0.5,
                    0.0
                ],
                "xyz": [
                    0.0,
                    2.068398915,
                    0.0
                ],
                "label": "O",
                "properties": {}
            },
            {
                "species": [
                    {
                        "element": "O",
                        "occu": 1
                    }
                ],
                "abc": [
                    0.0,
                    0.0,
                    0.5
                ],
                "xyz": [
                    0.0,
                    0.0,
                    2.068398915
                ],
                "label": "O",
                "properties": {}
            },
            {
                "species": [
                    {
                        "element": "O",
                        "occu": 1
                    }
                ],
                "abc": [
                    0.5,
                    0.0,
                    0.0
                ],
                "xyz": [
                    2.068398915,
                    0.0,
                    0.0
                ],
                "label": "O",
                "properties": {}
            }
        ]
    },
    "spacegroup": {
        "source": "spglib",
        "symbol": "Pm-3m",
        "number": 221,
        "point_group": "m-3m",
        "crystal_system": "cubic",
        "hall": "-P 4 2 3"
    },
    "dielectric": {
        "epsilon_ionic": [
            [
                15.56952769,
                -0.0,
                0.0
            ],
            [
                -0.0,
                15.56952357,
                -0.0
            ],
            [
                0.0,
                -0.0,
                15.56952245
            ]
        ],
        "epsilon_ionic_avg": 15.569524569999999,
        "epsilon_ionic_eig": [
            15.56952769,
            15.56952357,
            15.56952245
        ],
        "epsilon_electronic": [
            [
                4.85495015,
                0.0,
                -0.0
            ],
            [
                0.0,
                4.85495015,
                -0.0
            ],
            [
                0.0,
                0.0,
                4.85495015
            ]
        ],
        "epsilon_electronic_avg": 4.85495015,
        "epsilon_electronic_eig": [
            4.85495015,
            4.85495015,
            4.85495015
        ]
    },
    "phonon": {
        "lowest_freq": -0.035570320497453956,
        "frequency": [
            -0.035570320497453956,
            -0.035570320497453956,
            -0.03557032046309945,
            3.7747362692921906,
            3.7747362692921906,
            3.7747362692921906,
            6.065926621507639,
            6.065926621507639,
            6.065926621507639,
            6.718013705659451,
            6.718013705659451,
            6.718013705659451,
            18.179994589133557,
            18.179994589133557,
            18.179994589133557
        ]
    },
    "born_effective_charge": {
        "avg_abs_trace": 2.850316,
        "tensors": [
            [
                [
                    2.7187,
                    0.0,
                    -0.0
                ],
                [
                    -0.0,
                    2.7187,
                    0.0
                ],
                [
                    -0.0,
                    0.0,
                    2.7187
                ]
            ],
            [
                [
                    4.40709,
                    0.0,
                    0.0
                ],
                [
                    -0.0,
                    4.40709,
                    -0.0
                ],
                [
                    -0.0,
                    -0.0,
                    4.40709
                ]
            ],
            [
                [
                    -1.86876,
                    0.0,
                    0.0
                ],
                [
                    -0.0,
                    -3.38827,
                    0.0
                ],
                [
                    0.0,
                    0.0,
                    -1.86876
                ]
            ],
            [
                [
                    -1.86876,
                    0.0,
                    0.0
                ],
                [
                    -0.0,
                    -1.86876,
                    -0.0
                ],
                [
                    0.0,
                    -0.0,
                    -3.38827
                ]
            ],
            [
                [
                    -3.38827,
                    -0.0,
                    0.0
                ],
                [
                    0.0,
                    -1.86876,
                    -0.0
                ],
                [
                    0.0,
                    -0.0,
                    -1.86876
                ]
            ]
        ]
    },
    "band_gap": 0.6978,
    "is_direct": false,
    "formula": "BaSnO3"
}