{
    "mp_id": "mp-31213",
    "nelements": 3,
    "nsites": 17,
    "elements": [
        "O",
        "Sr",
        "Ti"
    ],
    "structure": {
        "@module": "pymatgen.core.structure",
        "@class": "Structure",
        "charge": null,
        "lattice": {
            "matrix": [
                [
                    -1.96592415,
                    1.96592415,
                    14.09065369
                ],
                [
                    1.96592415,
                    -1.96592415,
                    14.09065369
                ],
                [
                    1.96592415,
                    1.96592415,
                    -14.09065369
                ]
            ],
            "a": 14.36232004025175,
            "b": 14.36232004025175,
            "c": 14.36232004025175,
            "alpha": 164.26523068239632,
            "beta": 164.26523068239632,
            "gamma": 22.32339278188178,
            "volume": 217.83348922934545
        },
        "sites": [
            {
                "species": [
                    {
                        "element": "Sr",
                        "occu": 1
                    }
                ],
                "abc": [
                    0.56872159,
                    0.56872159,
                    0.0
                ],
                "xyz": [
                    0.0,
                    0.0,
                    16.027317941432333
                ],
                "label": "Sr",
                "properties": {}
            },
            {
                "species": [
                    {
                        "element": "Sr",
                        "occu": 1
                    }
                ],
                "abc": [
                    0.43127841,
                    0.43127841,
                    0.0
                ],
                "xyz": [
                    0.0,
                    0.0,
                    12.153989438567665
                ],
                "label": "Sr",
                "properties": {}
            },
            {
                "species": [
                    {
                        "element": "Sr",
                        "occu": 1
                    }
                ],
                "abc": [
                    0.29743474,
                    0.29743474,
                    0.0
                ],
                "xyz": [
                    0.0,
                    0.0,
                    8.382099833430381
                ],
                "label": "Sr",
                "properties": {}
            },
            {
                "species": [
                    {
                        "element": "Sr",
                        "occu": 1
                    }
                ],
                "abc": [
                    0.70256526,
                    0.70256526,
                    0.0
                ],
                "xyz": [
                    0.0,
                    0.0,
                    19.79920754656962
                ],
                "label": "Sr",
                "properties": {}
            },
            {
                "species": [
                    {
                        "element": "Ti",
                        "occu": 1
                    }
                ],
                "abc": [
                    0.0,
                    0.0,
                    0.0
                ],
                "xyz": [
                    0.0,
                    0.0,
                    0.0
                ],
                "label": "Ti",
                "properties": {}
            },
            {
                "species": [
                    {
                        "element": "Ti",
                        "occu": 1
                    }
                ],
                "abc": [
                    0.85925727,
                    0.85925727,
                    0.0
                ],
                "xyz": [
                    0.0,
                    0.0,
                    24.21499324436965
                ],
                "label": "Ti",
                "properties": {}
            },
            {
                "species": [
                    {
                        "element": "Ti",
                        "occu": 1
                    }
                ],
                "abc": [
                    0.14074273,
                    0.14074273,
                    0.0
                ],
                "xyz": [
                    0.0,
                    0.0,
                    3.9663141356303475
                ],
                "label": "Ti",
                "properties": {}
            },
            {
                "species": [
                    {
                        "element": "O",
                        "occu": 1
                    }
                ],
                "abc": [
                    0.63948416,
                    0.13948416,
                    0.5
                ],
                "xyz": [
                    1.1102230246251565e-16,
                    1.9659241499999998,
                    3.9308459876010993
                ],
                "label": "O",
                "properties": {}
            },
            {
                "species": [
                    {
                        "element": "O",
                        "occu": 1
                    }
                ],
                "abc": [
                    0.78945061,
                    0.78945061,
                    0.0
                ],
                "xyz": [
                    0.0,
                    0.0,
                    22.247750301738503
                ],
                "label": "O",
                "properties": {}
            },
            {
                "species": [
                    {
                        "element": "O",
                        "occu": 1
                    }
                ],
                "abc": [
                    0.21054939,
                    0.21054939,
                    0.0
                ],
                "xyz": [
                    0.0,
                    0.0,
                    5.933557078261498
                ],
                "label": "O",
                "properties": {}
            },
            {
                "species": [
                    {
                        "element": "O",
                        "occu": 1
                    }
                ],
                "abc": [
                    0.0,
                    0.5,
                    0.5
                ],
                "xyz": [
                    1.96592415,
                    0.0,
                    0.0
                ],
                "label": "O",
                "properties": {}
            },
            {
                "species": [
                    {
                        "element": "O",
                        "occu": 1
                    }
                ],
                "abc": [
                    0.5,
                    0.0,
                    0.5
                ],
                "xyz": [
                    0.0,
                    1.96592415,
                    0.0
                ],
                "label": "O",
                "properties": {}
            },
            {
                "species": [
                    {
                        "element": "O",
                        "occu": 1
                    }
                ],
                "abc": [
                    0.06984067,
                    0.06984067,
                    0.0
                ],
                "xyz": [
                    0.0,
                    0.0,
                    1.9682013888951444
                ],
                "label": "O",
                "properties": {}
            },
            {
                "species": [
                    {
                        "element": "O",
                        "occu": 1
                    }
                ],
                "abc": [
                    0.93015933,
                    0.93015933,
                    0.0
                ],
                "xyz": [
                    0.0,
                    0.0,
                    26.213105991104854
                ],
                "label": "O",
                "properties": {}
            },
            {
                "species": [
                    {
                        "element": "O",
                        "occu": 1
                    }
                ],
                "abc": [
                    0.13948416,
                    0.63948416,
                    0.5
                ],
                "xyz": [
                    1.9659241499999998,
                    1.1102230246251565e-16,
                    3.9308459876010993
                ],
                "label": "O",
                "properties": {}
            },
            {
                "species": [
                    {
                        "element": "O",
                        "occu": 1
                    }
                ],
                "abc": [
                    0.86051584,
                    0.36051584,
                    0.5
                ],
                "xyz": [
                    0.0,
                    1.96592415,
                    10.159807702398899
                ],
                "label": "O",
                "properties": {}
            },
            {
                "species": [
                    {
                        "element": "O",
                        "occu": 1
                    }
                ],
                "abc": [
                    0.36051584,
                    0.86051584,
                    0.5
                ],
                "xyz": [
                    1.96592415,
                    0.0,
                    10.159807702398899
                ],
                "label": "O",
                "properties": {}
            }
        ]
    },
    "spacegroup": {
        "source": "spglib",
        "symbol": "I4/mmm",
        "number": 139,
        "point_group": "4/mmm",
        "crystal_system": "tetragonal",
        "hall": "-I 4 2"
    },
    "dielectric": {
        "epsilon_ionic": [
            [
                42.90026056,
                0.0,
                -0.0
            ],
            [
                0.0,
                42.89886817,
                -1e-08
            ],
            [
                -0.0,
                -1e-08,
                20.25343493
            ]
        ],
        "epsilon_ionic_avg": 35.350854553333335,
        "epsilon_ionic_eig": [
            20.25343493,
            42.89886817,
            42.90026056
        ],
        "epsilon_electronic": [
            [
                5.54350276,
                0.0,
                0.0
            ],
            [
                0.0,
                5.54350276,
                0.0
            ],
            [
                0.0,
                0.0,
                5.40013674
            ]
        ],
        "epsilon_electronic_avg": 5.495714086666666,
        "epsilon_electronic_eig": [
            5.54350276,
            5.54350276,
            5.40013674
        ]
    },
    "phonon": {
        "lowest_freq": -0.25177762619395716,
        "frequency": [
            -0.25177762619395716,
            -0.015008458167763456,
            -0.015008458159621377,
            2.2049660156506574,
            2.2049660156506574,
            2.351250486608907,
            2.351250486608907,
            2.8504932190846692,
            2.8504932190846692,
            3.770052489022835,
            3.770052489022835,
            3.932456626783564,
            4.099433974582072,
            4.387284890540259,
            4.387284890540259,
            4.655931006447213,
            4.655931006447213,
            5.1555759702532535,
            5.426206298418834,
            6.022433468523628,
            6.588152511701714,
            6.588152511701714,
            7.286812416812223,
            7.286812416812223,
            7.382733209785352,
            7.383425735576027,
            7.383425735576027,
            7.88460179711825,
            7.909080307685142,
            7.909080307685142,
            8.03545797939189,
            8.218464033900107,
            8.218464033900107,
            8.22506663749856,
            8.22506663749856,
            8.4595525658919,
            8.518255584227555,
            8.518255584227555,
            10.376706710526449,
            13.250715469739703,
            14.87217833086223,
            15.945674299811346,
            17.33870601528626,
            17.33870601528626,
            17.584828291303502,
            17.584828291303502,
            17.677313290664646,
            17.677313290664646,
            18.92643697020356,
            21.755649911684888,
            22.67384868426334
        ]
    },
    "born_effective_charge": {
        "avg_abs_trace": 3.497994901960784,
        "tensors": [
            [
                [
                    2.54652,
                    0.0,
                    -2e-05
                ],
                [
                    0.0,
                    2.54639,
                    -3e-05
                ],
                [
                    0.0,
                    0.0,
                    2.27833
                ]
            ],
            [
                [
                    2.54652,
                    0.0,
                    2e-05
                ],
                [
                    0.0,
                    2.54639,
                    3e-05
                ],
                [
                    -0.0,
                    -0.0,
                    2.27807
                ]
            ],
            [
                [
                    2.33458,
                    -0.0,
                    2e-05
                ],
                [
                    0.0,
                    2.33452,
                    0.00018
                ],
                [
                    -0.0,
                    -0.0,
                    3.02794
                ]
            ],
            [
                [
                    2.33458,
                    -0.0,
                    -2e-05
                ],
                [
                    -0.0,
                    2.33452,
                    -0.00018
                ],
                [
                    -0.0,
                    -0.0,
                    3.02826
                ]
            ],
            [
                [
                    6.90976,
                    0.0,
                    0.0
                ],
                [
                    -0.0,
                    6.90978,
                    0.0
                ],
                [
                    0.0,
                    0.0,
                    6.16579
                ]
            ],
            [
                [
                    6.78992,
                    -0.0,
                    -4e-05
                ],
                [
                    -0.0,
                    6.78994,
                    -0.0002
                ],
                [
                    -0.0,
                    -0.0,
                    5.95873
                ]
            ],
            [
                [
                    6.78992,
                    0.0,
                    4e-05
                ],
                [
                    0.0,
                    6.78994,
                    0.0002
                ],
                [
                    0.0,
                    0.0,
                    5.95846
                ]
            ],
            [
                [
                    -1.93824,
                    0.0,
                    0.0
                ],
                [
                    0.0,
                    -5.50027,
                    -0.00011
                ],
                [
                    0.0,
                    -0.0,
                    -1.69284
                ]
            ],
            [
                [
                    -1.97042,
                    0.0,
                    -3e-05
                ],
                [
                    -0.0,
                    -1.9704,
                    0.00025
                ],
                [
                    0.0,
                    0.0,
                    -4.27547
                ]
            ],
            [
                [
                    -1.97042,
                    0.0,
                    3e-05
                ],
                [
                    0.0,
                    -1.9704,
                    -0.00025
                ],
                [
                    0.0,
                    0.0,
                    -4.27552
                ]
            ],
            [
                [
                    -5.60891,
                    0.0,
                    -0.0
                ],
                [
                    -0.0,
                    -1.93856,
                    0.0
                ],
                [
                    0.0,
                    0.0,
                    -1.68436
                ]
            ],
            [
                [
                    -1.93859,
                    0.0,
                    0.0
                ],
                [
                    -0.0,
                    -5.60884,
                    0.0
                ],
                [
                    0.0,
                    0.0,
                    -1.68436
                ]
            ],
            [
                [
                    -1.94317,
                    -0.0,
                    -2e-05
                ],
                [
                    -0.0,
                    -1.94315,
                    -4e-05
                ],
                [
                    0.0,
                    0.0,
                    -5.00202
                ]
            ],
            [
                [
                    -1.94317,
                    0.0,
                    2e-05
                ],
                [
                    -0.0,
                    -1.94315,
                    4e-05
                ],
                [
                    0.0,
                    0.0,
                    -5.00223
                ]
            ],
            [
                [
                    -5.50033,
                    0.0,
                    1e-05
                ],
                [
                    -0.0,
                    -1.93821,
                    8e-05
                ],
                [
                    -0.0,
                    0.0,
                    -1.69284
                ]
            ],
            [
                [
                    -5.50033,
                    -0.0,
                    -1e-05
                ],
                [
                    0.0,
                    -1.93821,
                    -8e-05
                ],
                [
                    -0.0,
                    0.0,
                    -1.69298
                ]
            ],
            [
                [
                    -1.93824,
                    -0.0,
                    -0.0
                ],
                [
                    0.0,
                    -5.50027,
                    0.00011
                ],
                [
                    0.0,
                    -0.0,
                    -1.69298
                ]
            ]
        ]
    },
    "band_gap": 2.1357,
    "is_direct": false,
    "formula": "Sr4Ti3O10"
}