{
    "mp_id": "mp-30304",
    "nelements": 3,
    "nsites": 22,
    "elements": [
        "Bi",
        "O",
        "Sb"
    ],
    "structure": {
        "@module": "pymatgen.core.structure",
        "@class": "Structure",
        "charge": null,
        "lattice": {
            "matrix": [
                [
                    6.59045399,
                    -0.00038426,
                    -0.00062163
                ],
                [
                    1.45297323,
                    6.6995441,
                    -0.00099983
                ],
                [
                    0.04525793,
                    2.17849238,
                    7.31571701
                ]
            ],
            "a": 6.590454030519181,
            "b": 6.855291631623083,
            "c": 7.633321210348042,
            "alpha": 73.73827857420308,
            "beta": 89.66642451445726,
            "gamma": 77.76673802957598,
            "volume": 323.0277850658598
        },
        "sites": [
            {
                "species": [
                    {
                        "element": "Bi",
                        "occu": 1
                    }
                ],
                "abc": [
                    0.47463322,
                    0.00824823,
                    0.25486698
                ],
                "xyz": [
                    3.1515676078605823,
                    0.6103027719144382,
                    1.8642314077969804
                ],
                "label": "Bi",
                "properties": {}
            },
            {
                "species": [
                    {
                        "element": "Bi",
                        "occu": 1
                    }
                ],
                "abc": [
                    0.52536678,
                    0.99175177,
                    0.74513302
                ],
                "xyz": [
                    4.9371175421394184,
                    8.267349448085561,
                    5.44986414220302
                ],
                "label": "Bi",
                "properties": {}
            },
            {
                "species": [
                    {
                        "element": "Bi",
                        "occu": 1
                    }
                ],
                "abc": [
                    0.73603502,
                    0.51725757,
                    0.11914301
                ],
                "xyz": [
                    5.60775850257015,
                    3.724659211872316,
                    0.8706418337939044
                ],
                "label": "Bi",
                "properties": {}
            },
            {
                "species": [
                    {
                        "element": "Bi",
                        "occu": 1
                    }
                ],
                "abc": [
                    0.26396498,
                    0.48274243,
                    0.88085699
                ],
                "xyz": [
                    2.48092664742985,
                    5.152993008127684,
                    6.443453716206095
                ],
                "label": "Bi",
                "properties": {}
            },
            {
                "species": [
                    {
                        "element": "Bi",
                        "occu": 1
                    }
                ],
                "abc": [
                    0.2580404,
                    0.52290833,
                    0.37529619
                ],
                "xyz": [
                    2.4773603176914887,
                    4.320728152646281,
                    2.744877495881756
                ],
                "label": "Bi",
                "properties": {}
            },
            {
                "species": [
                    {
                        "element": "Bi",
                        "occu": 1
                    }
                ],
                "abc": [
                    0.7419596,
                    0.47709167,
                    0.62470381
                ],
                "xyz": [
                    5.6113248323085125,
                    4.556924067353719,
                    4.569218054118243
                ],
                "label": "Bi",
                "properties": {}
            },
            {
                "species": [
                    {
                        "element": "Sb",
                        "occu": 1
                    }
                ],
                "abc": [
                    0.0,
                    0.0,
                    0.5
                ],
                "xyz": [
                    0.022628965,
                    1.08924619,
                    3.657858505
                ],
                "label": "Sb",
                "properties": {}
            },
            {
                "species": [
                    {
                        "element": "Sb",
                        "occu": 1
                    }
                ],
                "abc": [
                    0.0,
                    0.0,
                    0.0
                ],
                "xyz": [
                    0.0,
                    0.0,
                    0.0
                ],
                "label": "Sb",
                "properties": {}
            },
            {
                "species": [
                    {
                        "element": "O",
                        "occu": 1
                    }
                ],
                "abc": [
                    0.53810621,
                    0.62596746,
                    0.82197242
                ],
                "xyz": [
                    4.493078951215664,
                    5.984150484282892,
                    6.01235725073601
                ],
                "label": "O",
                "properties": {}
            },
            {
                "species": [
                    {
                        "element": "O",
                        "occu": 1
                    }
                ],
                "abc": [
                    0.46189379,
                    0.37403254,
                    0.17802758
                ],
                "xyz": [
                    3.595606198784336,
                    2.893501735717109,
                    1.3017382992639899
                ],
                "label": "O",
                "properties": {}
            },
            {
                "species": [
                    {
                        "element": "O",
                        "occu": 1
                    }
                ],
                "abc": [
                    0.71763931,
                    0.9519025,
                    0.05106436
                ],
                "xyz": [
                    6.114968771270797,
                    6.488280336718566,
                    0.37217456025591333
                ],
                "label": "O",
                "properties": {}
            },
            {
                "species": [
                    {
                        "element": "O",
                        "occu": 1
                    }
                ],
                "abc": [
                    0.28236069,
                    0.0480975,
                    0.94893564
                ],
                "xyz": [
                    1.9737163787292036,
                    2.3893718832814335,
                    6.941920989744087
                ],
                "label": "O",
                "properties": {}
            },
            {
                "species": [
                    {
                        "element": "O",
                        "occu": 1
                    }
                ],
                "abc": [
                    0.7252031,
                    0.92757766,
                    0.48204101
                ],
                "xyz": [
                    6.14897935096912,
                    7.264191439934104,
                    3.5250973883997294
                ],
                "label": "O",
                "properties": {}
            },
            {
                "species": [
                    {
                        "element": "O",
                        "occu": 1
                    }
                ],
                "abc": [
                    0.2747969,
                    0.07242234,
                    0.51795899
                ],
                "xyz": [
                    1.9397057990308801,
                    1.6134607800658962,
                    3.788998161600271
                ],
                "label": "O",
                "properties": {}
            },
            {
                "species": [
                    {
                        "element": "O",
                        "occu": 1
                    }
                ],
                "abc": [
                    0.4677803,
                    0.34544248,
                    0.63987256
                ],
                "xyz": [
                    3.6137625280526087,
                    3.7080848756463825,
                    4.6804904014015785
                ],
                "label": "O",
                "properties": {}
            },
            {
                "species": [
                    {
                        "element": "O",
                        "occu": 1
                    }
                ],
                "abc": [
                    0.5322197,
                    0.65455752,
                    0.36012744
                ],
                "xyz": [
                    4.474922621947392,
                    5.1695673443536165,
                    2.633605148598422
                ],
                "label": "O",
                "properties": {}
            },
            {
                "species": [
                    {
                        "element": "O",
                        "occu": 1
                    }
                ],
                "abc": [
                    0.09558852,
                    0.69278869,
                    0.03739429
                ],
                "xyz": [
                    1.638267551808183,
                    4.722794825612044,
                    0.2728139518222626
                ],
                "label": "O",
                "properties": {}
            },
            {
                "species": [
                    {
                        "element": "O",
                        "occu": 1
                    }
                ],
                "abc": [
                    0.90441148,
                    0.30721131,
                    0.96260571
                ],
                "xyz": [
                    6.450417598191818,
                    4.154857394387955,
                    7.041281598177737
                ],
                "label": "O",
                "properties": {}
            },
            {
                "species": [
                    {
                        "element": "O",
                        "occu": 1
                    }
                ],
                "abc": [
                    0.88797314,
                    0.304175,
                    0.38403749
                ],
                "xyz": [
                    6.311484997600875,
                    2.8741153596580493,
                    2.8086534840374364
                ],
                "label": "O",
                "properties": {}
            },
            {
                "species": [
                    {
                        "element": "O",
                        "occu": 1
                    }
                ],
                "abc": [
                    0.11202686,
                    0.695825,
                    0.61596251
                ],
                "xyz": [
                    1.7772001523991257,
                    6.003536860341951,
                    4.505442065962563
                ],
                "label": "O",
                "properties": {}
            },
            {
                "species": [
                    {
                        "element": "O",
                        "occu": 1
                    }
                ],
                "abc": [
                    0.09570167,
                    0.92676927,
                    0.26860884
                ],
                "xyz": [
                    1.9894450726759068,
                    6.794057131706731,
                    1.9640801570760225
                ],
                "label": "O",
                "properties": {}
            },
            {
                "species": [
                    {
                        "element": "O",
                        "occu": 1
                    }
                ],
                "abc": [
                    0.90429833,
                    0.07323073,
                    0.73139116
                ],
                "xyz": [
                    6.099240077324093,
                    2.083595088293268,
                    5.350015392923978
                ],
                "label": "O",
                "properties": {}
            }
        ]
    },
    "spacegroup": {
        "source": "spglib",
        "symbol": "P-1",
        "number": 2,
        "point_group": "-1",
        "crystal_system": "triclinic",
        "hall": "-P 1"
    },
    "dielectric": {
        "epsilon_ionic": [
            [
                18.87097141,
                -4.54644144,
                2.62899281
            ],
            [
                -4.54644144,
                27.65475096,
                1.93542786
            ],
            [
                2.62899281,
                1.93542786,
                37.56808231
            ]
        ],
        "epsilon_ionic_avg": 28.031268226666686,
        "epsilon_ionic_eig": [
            16.46259421610845,
            29.519820887670686,
            38.11138957622093
        ],
        "epsilon_electronic": [
            [
                5.84336661,
                -0.0487547,
                -0.00810152
            ],
            [
                -0.04875201,
                6.10650621,
                0.08042864
            ],
            [
                -0.0080965,
                0.08042675,
                6.35928776
            ]
        ],
        "epsilon_electronic_avg": 6.103053526666668,
        "epsilon_electronic_eig": [
            5.83454702563262,
            6.091047107764648,
            6.383566446602735
        ]
    },
    "phonon": {
        "lowest_freq": -0.045260176790631206,
        "frequency": [
            -0.045260176790631206,
            -0.03499576944411489,
            -0.01709141919883078,
            1.4167500949077534,
            1.4735056158788653,
            1.7776264192871947,
            1.8960970381988747,
            2.0115016542876822,
            2.3710072077806066,
            2.519263456793399,
            2.5475756439004704,
            2.8606369755563317,
            2.8616931742257274,
            3.0970707516263527,
            3.415593881017077,
            3.698275228585564,
            3.7965766776809025,
            3.8815071484323176,
            4.00986685235612,
            4.251250794597757,
            4.316064411679051,
            4.650475267756386,
            4.768803328974431,
            4.83533416663592,
            5.156614130261216,
            5.645302654863211,
            6.246910948607048,
            6.276625924263651,
            6.719008965630242,
            6.880918198808462,
            7.007435633551181,
            7.258058473511686,
            7.27895435528071,
            7.481590466300892,
            7.793541945881806,
            8.374532878809564,
            8.454559056513267,
            8.783999698424848,
            8.879597280842779,
            8.946818950416581,
            9.093654301060146,
            9.656963193001538,
            9.68160738433776,
            9.96791500537968,
            10.25172771475771,
            10.541750491412882,
            10.908213684511228,
            10.918442976826844,
            11.162208412863167,
            11.47437963282169,
            12.307033685459373,
            12.698915866125448,
            13.38478393110066,
            14.198521509850398,
            15.291088538925624,
            15.869150865326672,
            16.239165125557154,
            16.462312022043264,
            16.843701696888452,
            17.960784910152068,
            17.970711441023806,
            18.40951868835636,
            18.6871810153333,
            19.61718064543659,
            20.317793082444435,
            21.574551043860417
        ]
    },
    "born_effective_charge": {
        "avg_abs_trace": 3.451119545454546,
        "tensors": [
            [
                [
                    4.07609,
                    0.28536,
                    -0.21626
                ],
                [
                    0.08945,
                    5.20085,
                    -0.00961
                ],
                [
                    -0.13906,
                    -0.04633,
                    5.15148
                ]
            ],
            [
                [
                    4.07613,
                    0.28541,
                    -0.21622
                ],
                [
                    0.08927,
                    5.20077,
                    -0.00966
                ],
                [
                    -0.13957,
                    -0.04646,
                    5.15148
                ]
            ],
            [
                [
                    4.36635,
                    -0.19022,
                    -0.07684
                ],
                [
                    -0.20884,
                    3.66697,
                    0.31598
                ],
                [
                    -0.07093,
                    0.28753,
                    5.12223
                ]
            ],
            [
                [
                    4.36631,
                    -0.19024,
                    -0.07672
                ],
                [
                    -0.20884,
                    3.66699,
                    0.31605
                ],
                [
                    -0.07071,
                    0.28743,
                    5.1223
                ]
            ],
            [
                [
                    4.04165,
                    -0.32049,
                    0.17111
                ],
                [
                    -0.30414,
                    4.2714,
                    0.39313
                ],
                [
                    0.16461,
                    0.46602,
                    4.9839
                ]
            ],
            [
                [
                    4.0416,
                    -0.32052,
                    0.17118
                ],
                [
                    -0.3042,
                    4.27162,
                    0.39301
                ],
                [
                    0.16423,
                    0.46666,
                    4.98367
                ]
            ],
            [
                [
                    5.9693,
                    -0.47983,
                    -0.50447
                ],
                [
                    -0.2429,
                    5.66559,
                    0.20041
                ],
                [
                    -0.32573,
                    -0.06707,
                    4.41309
                ]
            ],
            [
                [
                    5.6476,
                    -0.0685,
                    0.76036
                ],
                [
                    0.2283,
                    5.38273,
                    -0.73307
                ],
                [
                    0.31508,
                    -0.39089,
                    5.04684
                ]
            ],
            [
                [
                    -2.8212,
                    -0.55511,
                    0.23981
                ],
                [
                    -0.2593,
                    -3.0275,
                    -0.07352
                ],
                [
                    0.32885,
                    -0.15105,
                    -2.80561
                ]
            ],
            [
                [
                    -2.82117,
                    -0.55514,
                    0.23983
                ],
                [
                    -0.25951,
                    -3.02746,
                    -0.0737
                ],
                [
                    0.32816,
                    -0.15106,
                    -2.80617
                ]
            ],
            [
                [
                    -3.15904,
                    0.07579,
                    0.36887
                ],
                [
                    0.08727,
                    -2.03703,
                    -0.21655
                ],
                [
                    0.64382,
                    -0.39885,
                    -2.7192
                ]
            ],
            [
                [
                    -3.15906,
                    0.07575,
                    0.36887
                ],
                [
                    0.08717,
                    -2.03672,
                    -0.21631
                ],
                [
                    0.64343,
                    -0.39861,
                    -2.71838
                ]
            ],
            [
                [
                    -3.23699,
                    -0.13155,
                    -0.21882
                ],
                [
                    -0.15745,
                    -1.89466,
                    -0.39056
                ],
                [
                    -0.45851,
                    -0.20267,
                    -2.77523
                ]
            ],
            [
                [
                    -3.23692,
                    -0.13155,
                    -0.21885
                ],
                [
                    -0.15757,
                    -1.89493,
                    -0.39073
                ],
                [
                    -0.4589,
                    -0.20303,
                    -2.77607
                ]
            ],
            [
                [
                    -2.58969,
                    -0.41833,
                    0.03243
                ],
                [
                    -0.1416,
                    -3.19453,
                    0.48507
                ],
                [
                    -0.19896,
                    0.44123,
                    -2.63022
                ]
            ],
            [
                [
                    -2.58965,
                    -0.4183,
                    0.03237
                ],
                [
                    -0.14165,
                    -3.1946,
                    0.48497
                ],
                [
                    -0.19918,
                    0.44099,
                    -2.63072
                ]
            ],
            [
                [
                    -2.12923,
                    0.55324,
                    0.00491
                ],
                [
                    0.35607,
                    -3.3691,
                    -0.17635
                ],
                [
                    0.16807,
                    -0.49944,
                    -2.4621
                ]
            ],
            [
                [
                    -2.12931,
                    0.55325,
                    0.00498
                ],
                [
                    0.35605,
                    -3.36924,
                    -0.17654
                ],
                [
                    0.16818,
                    -0.49967,
                    -2.46259
                ]
            ],
            [
                [
                    -1.92288,
                    0.64061,
                    -0.28226
                ],
                [
                    0.38074,
                    -2.81214,
                    0.29327
                ],
                [
                    -0.33681,
                    0.653,
                    -3.193
                ]
            ],
            [
                [
                    -1.92292,
                    0.6406,
                    -0.28222
                ],
                [
                    0.38066,
                    -2.81228,
                    0.29303
                ],
                [
                    -0.33695,
                    0.6528,
                    -3.19364
                ]
            ],
            [
                [
                    -2.43348,
                    0.33491,
                    -0.15099
                ],
                [
                    0.16552,
                    -2.32833,
                    -0.35405
                ],
                [
                    -0.09449,
                    -0.32025,
                    -3.40113
                ]
            ],
            [
                [
                    -2.4335,
                    0.33486,
                    -0.15108
                ],
                [
                    0.1655,
                    -2.32839,
                    -0.35427
                ],
                [
                    -0.09462,
                    -0.32029,
                    -3.40094
                ]
            ]
        ]
    },
    "band_gap": 2.1099999999999994,
    "is_direct": false,
    "formula": "Bi3SbO7"
}