{
    "mp_id": "mp-3378",
    "nelements": 3,
    "nsites": 20,
    "elements": [
        "Hf",
        "O",
        "Sr"
    ],
    "structure": {
        "@module": "pymatgen.core.structure",
        "@class": "Structure",
        "charge": null,
        "lattice": {
            "matrix": [
                [
                    5.82783673,
                    0.0,
                    0.0
                ],
                [
                    0.0,
                    8.18455651,
                    0.0
                ],
                [
                    0.0,
                    0.0,
                    5.77404984
                ]
            ],
            "a": 5.82783673,
            "b": 8.18455651,
            "c": 5.77404984,
            "alpha": 90.0,
            "beta": 90.0,
            "gamma": 90.0,
            "volume": 275.4121250228737
        },
        "sites": [
            {
                "species": [
                    {
                        "element": "Sr",
                        "occu": 1
                    }
                ],
                "abc": [
                    0.96809648,
                    0.25,
                    0.99251502
                ],
                "xyz": [
                    5.64190822432771,
                    2.0461391275,
                    5.730831192428597
                ],
                "label": "Sr",
                "properties": {}
            },
            {
                "species": [
                    {
                        "element": "Sr",
                        "occu": 1
                    }
                ],
                "abc": [
                    0.46809648,
                    0.25,
                    0.50748498
                ],
                "xyz": [
                    2.72798985932771,
                    2.0461391275,
                    2.930243567571403
                ],
                "label": "Sr",
                "properties": {}
            },
            {
                "species": [
                    {
                        "element": "Sr",
                        "occu": 1
                    }
                ],
                "abc": [
                    0.03190352,
                    0.75,
                    0.00748498
                ],
                "xyz": [
                    0.18592850567228958,
                    6.1384173825,
                    0.043218647571403195
                ],
                "label": "Sr",
                "properties": {}
            },
            {
                "species": [
                    {
                        "element": "Sr",
                        "occu": 1
                    }
                ],
                "abc": [
                    0.53190352,
                    0.75,
                    0.49251502
                ],
                "xyz": [
                    3.0998468706722893,
                    6.1384173825,
                    2.843806272428597
                ],
                "label": "Sr",
                "properties": {}
            },
            {
                "species": [
                    {
                        "element": "Hf",
                        "occu": 1
                    }
                ],
                "abc": [
                    0.0,
                    0.5,
                    0.5
                ],
                "xyz": [
                    0.0,
                    4.092278255,
                    2.88702492
                ],
                "label": "Hf",
                "properties": {}
            },
            {
                "species": [
                    {
                        "element": "Hf",
                        "occu": 1
                    }
                ],
                "abc": [
                    0.0,
                    0.0,
                    0.5
                ],
                "xyz": [
                    0.0,
                    0.0,
                    2.88702492
                ],
                "label": "Hf",
                "properties": {}
            },
            {
                "species": [
                    {
                        "element": "Hf",
                        "occu": 1
                    }
                ],
                "abc": [
                    0.5,
                    0.5,
                    0.0
                ],
                "xyz": [
                    2.913918365,
                    4.092278255,
                    0.0
                ],
                "label": "Hf",
                "properties": {}
            },
            {
                "species": [
                    {
                        "element": "Hf",
                        "occu": 1
                    }
                ],
                "abc": [
                    0.5,
                    0.0,
                    0.0
                ],
                "xyz": [
                    2.913918365,
                    0.0,
                    0.0
                ],
                "label": "Hf",
                "properties": {}
            },
            {
                "species": [
                    {
                        "element": "O",
                        "occu": 1
                    }
                ],
                "abc": [
                    0.97997493,
                    0.75,
                    0.57685095
                ],
                "xyz": [
                    5.711133891533178,
                    6.1384173825,
                    3.330766135551348
                ],
                "label": "O",
                "properties": {}
            },
            {
                "species": [
                    {
                        "element": "O",
                        "occu": 1
                    }
                ],
                "abc": [
                    0.78575969,
                    0.54071686,
                    0.21385167
                ],
                "xyz": [
                    4.579279182335413,
                    4.425527696579758,
                    1.2347902009472327
                ],
                "label": "O",
                "properties": {}
            },
            {
                "species": [
                    {
                        "element": "O",
                        "occu": 1
                    }
                ],
                "abc": [
                    0.21424031,
                    0.04071686,
                    0.78614833
                ],
                "xyz": [
                    1.248557547664586,
                    0.3332494415797586,
                    4.539259639052767
                ],
                "label": "O",
                "properties": {}
            },
            {
                "species": [
                    {
                        "element": "O",
                        "occu": 1
                    }
                ],
                "abc": [
                    0.02002507,
                    0.25,
                    0.42314905
                ],
                "xyz": [
                    0.11670283846682108,
                    2.0461391275,
                    2.443283704448652
                ],
                "label": "O",
                "properties": {}
            },
            {
                "species": [
                    {
                        "element": "O",
                        "occu": 1
                    }
                ],
                "abc": [
                    0.78575969,
                    0.95928314,
                    0.21385167
                ],
                "xyz": [
                    4.579279182335413,
                    7.851307068420242,
                    1.2347902009472327
                ],
                "label": "O",
                "properties": {}
            },
            {
                "species": [
                    {
                        "element": "O",
                        "occu": 1
                    }
                ],
                "abc": [
                    0.21424031,
                    0.45928314,
                    0.78614833
                ],
                "xyz": [
                    1.248557547664586,
                    3.759028813420241,
                    4.539259639052767
                ],
                "label": "O",
                "properties": {}
            },
            {
                "species": [
                    {
                        "element": "O",
                        "occu": 1
                    }
                ],
                "abc": [
                    0.71424031,
                    0.04071686,
                    0.71385167
                ],
                "xyz": [
                    4.162475912664586,
                    0.3332494415797586,
                    4.121815120947233
                ],
                "label": "O",
                "properties": {}
            },
            {
                "species": [
                    {
                        "element": "O",
                        "occu": 1
                    }
                ],
                "abc": [
                    0.47997493,
                    0.75,
                    0.92314905
                ],
                "xyz": [
                    2.797215526533179,
                    6.1384173825,
                    5.330308624448652
                ],
                "label": "O",
                "properties": {}
            },
            {
                "species": [
                    {
                        "element": "O",
                        "occu": 1
                    }
                ],
                "abc": [
                    0.28575969,
                    0.95928314,
                    0.28614833
                ],
                "xyz": [
                    1.6653608173354137,
                    7.851307068420242,
                    1.6522347190527673
                ],
                "label": "O",
                "properties": {}
            },
            {
                "species": [
                    {
                        "element": "O",
                        "occu": 1
                    }
                ],
                "abc": [
                    0.52002507,
                    0.25,
                    0.07685095
                ],
                "xyz": [
                    3.0306212034668207,
                    2.0461391275,
                    0.443741215551348
                ],
                "label": "O",
                "properties": {}
            },
            {
                "species": [
                    {
                        "element": "O",
                        "occu": 1
                    }
                ],
                "abc": [
                    0.28575969,
                    0.54071686,
                    0.28614833
                ],
                "xyz": [
                    1.6653608173354137,
                    4.425527696579758,
                    1.6522347190527673
                ],
                "label": "O",
                "properties": {}
            },
            {
                "species": [
                    {
                        "element": "O",
                        "occu": 1
                    }
                ],
                "abc": [
                    0.71424031,
                    0.45928314,
                    0.71385167
                ],
                "xyz": [
                    4.162475912664586,
                    3.759028813420241,
                    4.121815120947233
                ],
                "label": "O",
                "properties": {}
            }
        ]
    },
    "spacegroup": {
        "source": "spglib",
        "symbol": "Pnma",
        "number": 62,
        "point_group": "mmm",
        "crystal_system": "orthorhombic",
        "hall": "-P 2ac 2n"
    },
    "dielectric": {
        "epsilon_ionic": [
            [
                16.26901122,
                -0.0,
                1e-07
            ],
            [
                -0.0,
                16.66667606,
                2e-08
            ],
            [
                1e-07,
                2e-08,
                14.58274594
            ]
        ],
        "epsilon_ionic_avg": 15.839477740000001,
        "epsilon_ionic_eig": [
            16.26901122000001,
            14.582745939999993,
            16.66667606
        ],
        "epsilon_electronic": [
            [
                4.13268345,
                0.0,
                -0.0
            ],
            [
                0.0,
                4.11326044,
                0.0
            ],
            [
                -0.0,
                0.0,
                4.16177248
            ]
        ],
        "epsilon_electronic_avg": 4.135905456666666,
        "epsilon_electronic_eig": [
            4.13268345,
            4.11326044,
            4.16177248
        ]
    },
    "phonon": {
        "lowest_freq": -0.06210992876248395,
        "frequency": [
            -0.06210992876248395,
            -0.030286847780039046,
            -0.02632034081032128,
            2.6034270233476926,
            2.926299622863781,
            2.95373138124468,
            3.001199831992648,
            3.142855859476986,
            3.2704292141623763,
            3.4906819867270853,
            3.5935168825434114,
            3.693689490531328,
            3.8466967437514383,
            3.8559838927691983,
            4.070302630755927,
            4.130932142212179,
            4.268033497667515,
            4.370043804747504,
            4.494443430214302,
            4.751688304270047,
            5.176359572955093,
            5.294959807811669,
            5.851021097206776,
            6.35581960838229,
            6.372707825555012,
            6.49442254933044,
            6.728651147083287,
            6.75570800773212,
            7.098691732606562,
            7.142482958910772,
            7.229868814667207,
            7.624794566539529,
            7.8417930168999135,
            8.493853467878523,
            8.730307099492277,
            9.001798645502916,
            9.186081522788816,
            9.193757389728468,
            9.572708820441171,
            9.66957955601501,
            9.746858491009771,
            10.341973281057726,
            10.948074790749457,
            11.429497234512501,
            11.840591115101981,
            12.085405796116104,
            12.89934090593057,
            13.042721391089195,
            16.46882198502342,
            16.520862005645178,
            16.742154484646864,
            16.911388225286753,
            16.946943555630323,
            17.179150754531772,
            17.716710270085137,
            17.717327718758973,
            17.858479931231876,
            21.849307183246655,
            22.963882627174197,
            23.646840671779664
        ]
    },
    "born_effective_charge": {
        "avg_abs_trace": 3.112498666666667,
        "tensors": [
            [
                [
                    2.44902,
                    -0.0,
                    -0.12196
                ],
                [
                    -1e-05,
                    2.41784,
                    -4e-05
                ],
                [
                    -0.11481,
                    -0.0,
                    2.53343
                ]
            ],
            [
                [
                    2.44902,
                    -0.0,
                    0.12196
                ],
                [
                    -1e-05,
                    2.41784,
                    4e-05
                ],
                [
                    0.11492,
                    -0.0,
                    2.53367
                ]
            ],
            [
                [
                    2.44887,
                    -0.0,
                    -0.12234
                ],
                [
                    1e-05,
                    2.41784,
                    4e-05
                ],
                [
                    -0.11492,
                    -0.0,
                    2.53367
                ]
            ],
            [
                [
                    2.44887,
                    -0.0,
                    0.12234
                ],
                [
                    1e-05,
                    2.41784,
                    -4e-05
                ],
                [
                    0.11481,
                    -0.0,
                    2.53343
                ]
            ],
            [
                [
                    5.29522,
                    -0.08032,
                    0.11579
                ],
                [
                    -0.13407,
                    5.3212,
                    0.22181
                ],
                [
                    -0.22704,
                    -0.36649,
                    5.32698
                ]
            ],
            [
                [
                    5.29522,
                    0.08032,
                    0.11579
                ],
                [
                    0.13407,
                    5.3212,
                    -0.22181
                ],
                [
                    -0.22704,
                    0.36649,
                    5.32698
                ]
            ],
            [
                [
                    5.29522,
                    -0.08032,
                    -0.11579
                ],
                [
                    -0.13407,
                    5.3212,
                    -0.22181
                ],
                [
                    0.22704,
                    0.36649,
                    5.32698
                ]
            ],
            [
                [
                    5.29522,
                    0.08032,
                    -0.11579
                ],
                [
                    0.13407,
                    5.3212,
                    0.22181
                ],
                [
                    0.22704,
                    -0.36649,
                    5.32698
                ]
            ],
            [
                [
                    -1.78247,
                    -0.0,
                    -0.07796
                ],
                [
                    3e-05,
                    -4.0232,
                    -7e-05
                ],
                [
                    -0.03886,
                    -0.0,
                    -1.98437
                ]
            ],
            [
                [
                    -2.98085,
                    -0.06501,
                    -1.08737
                ],
                [
                    -0.07393,
                    -1.85792,
                    0.00127
                ],
                [
                    -1.06138,
                    -0.00231,
                    -2.93813
                ]
            ],
            [
                [
                    -2.98079,
                    0.06472,
                    -1.08766
                ],
                [
                    0.07393,
                    -1.85792,
                    -0.00127
                ],
                [
                    -1.06122,
                    0.00172,
                    -2.93812
                ]
            ],
            [
                [
                    -1.78257,
                    -0.0,
                    -0.07768
                ],
                [
                    -3e-05,
                    -4.0232,
                    7e-05
                ],
                [
                    -0.03913,
                    -0.0,
                    -1.9842
                ]
            ],
            [
                [
                    -2.98085,
                    0.06501,
                    -1.08737
                ],
                [
                    0.07398,
                    -1.85793,
                    -0.00132
                ],
                [
                    -1.06138,
                    0.00231,
                    -2.93813
                ]
            ],
            [
                [
                    -2.98079,
                    -0.06472,
                    -1.08766
                ],
                [
                    -0.07398,
                    -1.85793,
                    0.00132
                ],
                [
                    -1.06122,
                    -0.00172,
                    -2.93812
                ]
            ],
            [
                [
                    -2.98079,
                    0.06472,
                    1.08766
                ],
                [
                    0.07393,
                    -1.85792,
                    0.00127
                ],
                [
                    1.06138,
                    -0.00231,
                    -2.93813
                ]
            ],
            [
                [
                    -1.78247,
                    -0.0,
                    0.07796
                ],
                [
                    3e-05,
                    -4.0232,
                    7e-05
                ],
                [
                    0.03913,
                    -0.0,
                    -1.9842
                ]
            ],
            [
                [
                    -2.98085,
                    0.06501,
                    1.08737
                ],
                [
                    0.07398,
                    -1.85793,
                    0.00132
                ],
                [
                    1.06122,
                    -0.00172,
                    -2.93812
                ]
            ],
            [
                [
                    -1.78257,
                    -0.0,
                    0.07768
                ],
                [
                    -3e-05,
                    -4.0232,
                    -7e-05
                ],
                [
                    0.03886,
                    -0.0,
                    -1.98437
                ]
            ],
            [
                [
                    -2.98085,
                    -0.06501,
                    1.08737
                ],
                [
                    -0.07393,
                    -1.85792,
                    -0.00127
                ],
                [
                    1.06122,
                    0.00172,
                    -2.93812
                ]
            ],
            [
                [
                    -2.98079,
                    -0.06472,
                    1.08766
                ],
                [
                    -0.07398,
                    -1.85793,
                    -0.00132
                ],
                [
                    1.06138,
                    0.00231,
                    -2.93813
                ]
            ]
        ]
    },
    "band_gap": 4.6761,
    "is_direct": false,
    "formula": "SrHfO3"
}