{
    "mp_id": "mp-3919",
    "nelements": 3,
    "nsites": 24,
    "elements": [
        "B",
        "K",
        "O"
    ],
    "structure": {
        "@module": "pymatgen.core.structure",
        "@class": "Structure",
        "charge": null,
        "lattice": {
            "matrix": [
                [
                    6.4023201,
                    3.69638122,
                    2.44789403
                ],
                [
                    -6.4023201,
                    3.69638122,
                    2.44789403
                ],
                [
                    0.0,
                    -7.39276245,
                    2.44789403
                ]
            ],
            "a": 7.787497798943017,
            "b": 7.787497798943017,
            "c": 7.787497789677994,
            "alpha": 110.59677373006164,
            "beta": 110.59677373006164,
            "gamma": 110.59677396200767,
            "volume": 347.5825803758039
        },
        "sites": [
            {
                "species": [
                    {
                        "element": "K",
                        "occu": 1
                    }
                ],
                "abc": [
                    0.75,
                    0.31034101,
                    0.18965899
                ],
                "xyz": [
                    2.814837588822699,
                    2.517320736582907,
                    3.0598675374999997
                ],
                "label": "K",
                "properties": {}
            },
            {
                "species": [
                    {
                        "element": "K",
                        "occu": 1
                    }
                ],
                "abc": [
                    0.31034101,
                    0.18965899,
                    0.75
                ],
                "xyz": [
                    0.7726449223546019,
                    -3.6963812275000003,
                    3.0598675374999997
                ],
                "label": "K",
                "properties": {}
            },
            {
                "species": [
                    {
                        "element": "K",
                        "occu": 1
                    }
                ],
                "abc": [
                    0.18965899,
                    0.75,
                    0.31034101
                ],
                "xyz": [
                    -3.587482511177301,
                    1.1790604784170942,
                    3.0598675374999997
                ],
                "label": "K",
                "properties": {}
            },
            {
                "species": [
                    {
                        "element": "K",
                        "occu": 1
                    }
                ],
                "abc": [
                    0.25,
                    0.68965899,
                    0.81034101
                ],
                "xyz": [
                    -2.814837588822699,
                    -2.5173207465829073,
                    4.2838145525
                ],
                "label": "K",
                "properties": {}
            },
            {
                "species": [
                    {
                        "element": "K",
                        "occu": 1
                    }
                ],
                "abc": [
                    0.68965899,
                    0.81034101,
                    0.25
                ],
                "xyz": [
                    -0.7726449223546021,
                    3.696381217500001,
                    4.2838145525
                ],
                "label": "K",
                "properties": {}
            },
            {
                "species": [
                    {
                        "element": "K",
                        "occu": 1
                    }
                ],
                "abc": [
                    0.81034101,
                    0.25,
                    0.68965899
                ],
                "xyz": [
                    3.587482511177301,
                    -1.1790604884170923,
                    4.2838145525
                ],
                "label": "K",
                "properties": {}
            },
            {
                "species": [
                    {
                        "element": "B",
                        "occu": 1
                    }
                ],
                "abc": [
                    0.25,
                    0.36318615,
                    0.13681385
                ],
                "xyz": [
                    -0.7246539631866147,
                    1.2551374763041707,
                    1.8359205225
                ],
                "label": "B",
                "properties": {}
            },
            {
                "species": [
                    {
                        "element": "B",
                        "occu": 1
                    }
                ],
                "abc": [
                    0.75,
                    0.63681385,
                    0.86318615
                ],
                "xyz": [
                    0.7246539631866149,
                    -1.2551374863041698,
                    5.5077615675
                ],
                "label": "B",
                "properties": {}
            },
            {
                "species": [
                    {
                        "element": "B",
                        "occu": 1
                    }
                ],
                "abc": [
                    0.63681385,
                    0.86318615,
                    0.75
                ],
                "xyz": [
                    -1.4493079263732298,
                    -7.499999732374363e-09,
                    5.507761567499999
                ],
                "label": "B",
                "properties": {}
            },
            {
                "species": [
                    {
                        "element": "B",
                        "occu": 1
                    }
                ],
                "abc": [
                    0.86318615,
                    0.75,
                    0.63681385
                ],
                "xyz": [
                    0.7246539631866149,
                    1.2551374713041703,
                    5.5077615675
                ],
                "label": "B",
                "properties": {}
            },
            {
                "species": [
                    {
                        "element": "B",
                        "occu": 1
                    }
                ],
                "abc": [
                    0.36318615,
                    0.13681385,
                    0.25
                ],
                "xyz": [
                    1.4493079263732298,
                    -2.4999999848063226e-09,
                    1.8359205225
                ],
                "label": "B",
                "properties": {}
            },
            {
                "species": [
                    {
                        "element": "B",
                        "occu": 1
                    }
                ],
                "abc": [
                    0.13681385,
                    0.25,
                    0.36318615
                ],
                "xyz": [
                    -0.724653963186615,
                    -1.2551374813041707,
                    1.8359205225
                ],
                "label": "B",
                "properties": {}
            },
            {
                "species": [
                    {
                        "element": "O",
                        "occu": 1
                    }
                ],
                "abc": [
                    0.35836558,
                    0.25,
                    0.14163442
                ],
                "xyz": [
                    0.6937911309821583,
                    1.2016814830028784,
                    1.8359205225000002
                ],
                "label": "O",
                "properties": {}
            },
            {
                "species": [
                    {
                        "element": "O",
                        "occu": 1
                    }
                ],
                "abc": [
                    0.14163442,
                    0.35836558,
                    0.25
                ],
                "xyz": [
                    -1.387582261964316,
                    -2.4999999848063226e-09,
                    1.8359205225
                ],
                "label": "O",
                "properties": {}
            },
            {
                "species": [
                    {
                        "element": "O",
                        "occu": 1
                    }
                ],
                "abc": [
                    0.75,
                    0.85836558,
                    0.64163442
                ],
                "xyz": [
                    -0.6937911309821576,
                    1.2016814780028788,
                    5.507761567499999
                ],
                "label": "O",
                "properties": {}
            },
            {
                "species": [
                    {
                        "element": "O",
                        "occu": 1
                    }
                ],
                "abc": [
                    0.25,
                    0.14163442,
                    0.35836558
                ],
                "xyz": [
                    0.6937911309821579,
                    -1.2016814880028788,
                    1.8359205225
                ],
                "label": "O",
                "properties": {}
            },
            {
                "species": [
                    {
                        "element": "O",
                        "occu": 1
                    }
                ],
                "abc": [
                    0.64163442,
                    0.75,
                    0.85836558
                ],
                "xyz": [
                    -0.6937911309821576,
                    -1.2016814930028783,
                    5.507761567499999
                ],
                "label": "O",
                "properties": {}
            },
            {
                "species": [
                    {
                        "element": "O",
                        "occu": 1
                    }
                ],
                "abc": [
                    0.85836558,
                    0.64163442,
                    0.75
                ],
                "xyz": [
                    1.3875822619643152,
                    -7.499999732374363e-09,
                    5.507761567499999
                ],
                "label": "O",
                "properties": {}
            },
            {
                "species": [
                    {
                        "element": "O",
                        "occu": 1
                    }
                ],
                "abc": [
                    0.03354981,
                    0.25,
                    0.46645019
                ],
                "xyz": [
                    -1.3857834020858188,
                    -2.400247256808797,
                    1.8359205225
                ],
                "label": "O",
                "properties": {}
            },
            {
                "species": [
                    {
                        "element": "O",
                        "occu": 1
                    }
                ],
                "abc": [
                    0.46645019,
                    0.03354981,
                    0.25
                ],
                "xyz": [
                    2.771566804171638,
                    -2.4999999848063226e-09,
                    1.8359205225
                ],
                "label": "O",
                "properties": {}
            },
            {
                "species": [
                    {
                        "element": "O",
                        "occu": 1
                    }
                ],
                "abc": [
                    0.25,
                    0.46645019,
                    0.03354981
                ],
                "xyz": [
                    -1.385783402085819,
                    2.400247251808797,
                    1.8359205225
                ],
                "label": "O",
                "properties": {}
            },
            {
                "species": [
                    {
                        "element": "O",
                        "occu": 1
                    }
                ],
                "abc": [
                    0.96645019,
                    0.75,
                    0.53354981
                ],
                "xyz": [
                    1.3857834020858188,
                    2.400247246808797,
                    5.5077615675
                ],
                "label": "O",
                "properties": {}
            },
            {
                "species": [
                    {
                        "element": "O",
                        "occu": 1
                    }
                ],
                "abc": [
                    0.53354981,
                    0.96645019,
                    0.75
                ],
                "xyz": [
                    -2.7715668041716377,
                    -7.500000620552782e-09,
                    5.507761567499999
                ],
                "label": "O",
                "properties": {}
            },
            {
                "species": [
                    {
                        "element": "O",
                        "occu": 1
                    }
                ],
                "abc": [
                    0.75,
                    0.53354981,
                    0.96645019
                ],
                "xyz": [
                    1.3857834020858188,
                    -2.400247261808797,
                    5.5077615675
                ],
                "label": "O",
                "properties": {}
            }
        ]
    },
    "spacegroup": {
        "source": "spglib",
        "symbol": "R-3c",
        "number": 167,
        "point_group": "-3m",
        "crystal_system": "trigonal",
        "hall": "-R 3 2\"c"
    },
    "dielectric": {
        "epsilon_ionic": [
            [
                3.32490842,
                -1.41e-06,
                0.0
            ],
            [
                -1.41e-06,
                3.32490162,
                -4.73e-06
            ],
            [
                0.0,
                -4.73e-06,
                3.37078346
            ]
        ],
        "epsilon_ionic_avg": 3.340197833333334,
        "epsilon_ionic_eig": [
            3.3249087007557763,
            3.324901338756606,
            3.37078346048762
        ],
        "epsilon_electronic": [
            [
                2.53426797,
                0.0,
                0.0
            ],
            [
                -0.0,
                2.53426773,
                0.0
            ],
            [
                -0.0,
                0.0,
                2.16847432
            ]
        ],
        "epsilon_electronic_avg": 2.4123366733333333,
        "epsilon_electronic_eig": [
            2.53426797,
            2.53426773,
            2.16847432
        ]
    },
    "phonon": {
        "lowest_freq": -0.028941355354204387,
        "frequency": [
            -0.028941355354204387,
            -0.028941353960834165,
            -0.007826113175836013,
            1.8428205307601337,
            2.575432420533634,
            2.8641343295953186,
            2.864134367994376,
            3.110324796727953,
            3.1103248595895883,
            3.177818009861559,
            3.177818021397782,
            3.420485587881245,
            3.5010428488058873,
            3.639057325825155,
            3.6390573728373554,
            3.848638809561678,
            3.8486388698895326,
            3.909829803256725,
            3.9098298063821817,
            3.9371474106088984,
            4.503597271058787,
            4.580148739617211,
            4.580148897031395,
            4.873575568320373,
            5.009451022409171,
            5.143021704166523,
            5.320054475621817,
            5.320054521561222,
            5.320874959015535,
            5.473236958678928,
            5.473236981005765,
            5.61307073750829,
            5.892377075605092,
            5.892377117082432,
            5.929683318481564,
            5.929683462738922,
            10.884359156285417,
            10.884359369600798,
            11.213594386568722,
            11.21359460451858,
            13.508083066731482,
            13.508083202428084,
            13.574619353481408,
            13.57461948851289,
            17.45549802388122,
            17.45644805805455,
            17.711399474715826,
            17.740069627809252,
            20.193613530713996,
            20.193613530713996,
            20.617486198904235,
            20.617486198904235,
            20.83406519442538,
            21.729082720597386,
            22.190963921899158,
            22.21712890235477,
            27.818317401042915,
            27.818317752466225,
            27.9704591402676,
            27.970459533468365,
            32.13386756766588,
            32.13422571745998,
            35.49937703076429,
            35.499378201151636,
            36.09571592257231,
            36.09571710747809,
            41.78423312437883,
            41.78423391400723,
            42.14390610340906,
            42.14390688629846,
            45.15078520186397,
            45.2767298099264
        ]
    },
    "born_effective_charge": {
        "avg_abs_trace": 1.5233641666666669,
        "tensors": [
            [
                [
                    1.23679,
                    0.05054,
                    -0.00237
                ],
                [
                    0.05053,
                    1.17846,
                    -0.00132
                ],
                [
                    0.02556,
                    0.01476,
                    1.15244
                ]
            ],
            [
                [
                    1.14929,
                    -0.0,
                    0.0
                ],
                [
                    -3e-05,
                    1.26597,
                    0.00272
                ],
                [
                    1e-05,
                    -0.02951,
                    1.15244
                ]
            ],
            [
                [
                    1.23679,
                    -0.05054,
                    0.00237
                ],
                [
                    -0.05054,
                    1.17843,
                    -0.0014
                ],
                [
                    -0.02556,
                    0.01475,
                    1.15244
                ]
            ],
            [
                [
                    1.2368,
                    0.05052,
                    -0.00234
                ],
                [
                    0.05054,
                    1.17843,
                    -0.0014
                ],
                [
                    0.02556,
                    0.01475,
                    1.15244
                ]
            ],
            [
                [
                    1.14926,
                    -0.0,
                    0.0
                ],
                [
                    3e-05,
                    1.26597,
                    0.00272
                ],
                [
                    -1e-05,
                    -0.02951,
                    1.15244
                ]
            ],
            [
                [
                    1.2368,
                    -0.05052,
                    0.00234
                ],
                [
                    -0.05053,
                    1.17846,
                    -0.00132
                ],
                [
                    -0.02556,
                    0.01476,
                    1.15244
                ]
            ],
            [
                [
                    2.32294,
                    -0.3342,
                    -0.01048
                ],
                [
                    -0.33397,
                    2.70891,
                    -0.006
                ],
                [
                    -0.00464,
                    -0.00268,
                    0.54045
                ]
            ],
            [
                [
                    2.32317,
                    -0.33426,
                    -0.01048
                ],
                [
                    -0.3345,
                    2.70907,
                    -0.0061
                ],
                [
                    -0.00464,
                    -0.00268,
                    0.54045
                ]
            ],
            [
                [
                    2.90208,
                    -0.0,
                    0.0
                ],
                [
                    -0.0005,
                    2.13009,
                    0.0121
                ],
                [
                    -0.0,
                    0.00536,
                    0.54045
                ]
            ],
            [
                [
                    2.32317,
                    0.33426,
                    0.01048
                ],
                [
                    0.33397,
                    2.70891,
                    -0.006
                ],
                [
                    0.00464,
                    -0.00268,
                    0.54045
                ]
            ],
            [
                [
                    2.90187,
                    -0.0,
                    0.0
                ],
                [
                    0.0005,
                    2.13009,
                    0.0121
                ],
                [
                    0.0,
                    0.00536,
                    0.54045
                ]
            ],
            [
                [
                    2.32294,
                    0.3342,
                    0.01048
                ],
                [
                    0.3345,
                    2.70907,
                    -0.0061
                ],
                [
                    0.00464,
                    -0.00268,
                    0.54045
                ]
            ],
            [
                [
                    -2.24153,
                    0.53143,
                    -0.03127
                ],
                [
                    0.53091,
                    -1.62785,
                    0.01796
                ],
                [
                    -0.02869,
                    0.01659,
                    -0.58152
                ]
            ],
            [
                [
                    -1.32126,
                    -0.0,
                    -0.0
                ],
                [
                    -0.00066,
                    -2.54874,
                    -0.03596
                ],
                [
                    -3e-05,
                    -0.03314,
                    -0.58152
                ]
            ],
            [
                [
                    -2.2421,
                    -0.53183,
                    0.03102
                ],
                [
                    -0.53091,
                    -1.62785,
                    0.01796
                ],
                [
                    0.02869,
                    0.01659,
                    -0.58152
                ]
            ],
            [
                [
                    -2.24153,
                    -0.53143,
                    0.03127
                ],
                [
                    -0.53233,
                    -1.62805,
                    0.018
                ],
                [
                    0.02872,
                    0.01655,
                    -0.58152
                ]
            ],
            [
                [
                    -2.2421,
                    0.53183,
                    -0.03102
                ],
                [
                    0.53233,
                    -1.62805,
                    0.018
                ],
                [
                    -0.02872,
                    0.01655,
                    -0.58152
                ]
            ],
            [
                [
                    -1.32078,
                    -0.0,
                    -0.0
                ],
                [
                    0.00066,
                    -2.54874,
                    -0.03596
                ],
                [
                    3e-05,
                    -0.03314,
                    -0.58152
                ]
            ],
            [
                [
                    -1.52177,
                    -0.46189,
                    -0.03408
                ],
                [
                    -0.46299,
                    -2.05774,
                    0.01983
                ],
                [
                    -0.01523,
                    0.00879,
                    -1.11137
                ]
            ],
            [
                [
                    -2.32162,
                    0.0,
                    0.0
                ],
                [
                    -0.00402,
                    -1.25501,
                    -0.0393
                ],
                [
                    1e-05,
                    -0.01759,
                    -1.11137
                ]
            ],
            [
                [
                    -1.52177,
                    0.46189,
                    0.03408
                ],
                [
                    0.46152,
                    -2.05354,
                    0.01948
                ],
                [
                    0.01523,
                    0.0088,
                    -1.11137
                ]
            ],
            [
                [
                    -1.52203,
                    -0.46265,
                    -0.034
                ],
                [
                    -0.46152,
                    -2.05354,
                    0.01948
                ],
                [
                    -0.01523,
                    0.0088,
                    -1.11137
                ]
            ],
            [
                [
                    -2.3234,
                    0.0,
                    0.0
                ],
                [
                    0.00402,
                    -1.25501,
                    -0.0393
                ],
                [
                    -1e-05,
                    -0.01759,
                    -1.11137
                ]
            ],
            [
                [
                    -1.52203,
                    0.46265,
                    0.034
                ],
                [
                    0.46299,
                    -2.05774,
                    0.01983
                ],
                [
                    0.01523,
                    0.00879,
                    -1.11137
                ]
            ]
        ]
    },
    "band_gap": 4.1243,
    "is_direct": true,
    "formula": "KBO2"
}