{
    "mp_id": "mp-3443",
    "nelements": 3,
    "nsites": 14,
    "elements": [
        "Cd",
        "Ga",
        "O"
    ],
    "structure": {
        "@module": "pymatgen.core.structure",
        "@class": "Structure",
        "charge": null,
        "lattice": {
            "matrix": [
                [
                    0.0,
                    4.318396,
                    4.318396
                ],
                [
                    4.318396,
                    0.0,
                    4.318396
                ],
                [
                    4.318396,
                    4.318396,
                    0.0
                ]
            ],
            "a": 6.107134190897725,
            "b": 6.107134190897725,
            "c": 6.107134190897725,
            "alpha": 60.00000000000001,
            "beta": 60.00000000000001,
            "gamma": 60.00000000000001,
            "volume": 161.0635957415371
        },
        "sites": [
            {
                "species": [
                    {
                        "element": "Cd",
                        "occu": 1
                    }
                ],
                "abc": [
                    0.25,
                    0.25,
                    0.25
                ],
                "xyz": [
                    2.159198,
                    2.159198,
                    2.159198
                ],
                "label": "Cd",
                "properties": {}
            },
            {
                "species": [
                    {
                        "element": "Cd",
                        "occu": 1
                    }
                ],
                "abc": [
                    0.0,
                    0.0,
                    0.0
                ],
                "xyz": [
                    0.0,
                    0.0,
                    0.0
                ],
                "label": "Cd",
                "properties": {}
            },
            {
                "species": [
                    {
                        "element": "Ga",
                        "occu": 1
                    }
                ],
                "abc": [
                    0.625,
                    0.625,
                    0.625
                ],
                "xyz": [
                    5.397995,
                    5.397995,
                    5.397995
                ],
                "label": "Ga",
                "properties": {}
            },
            {
                "species": [
                    {
                        "element": "Ga",
                        "occu": 1
                    }
                ],
                "abc": [
                    0.125,
                    0.625,
                    0.625
                ],
                "xyz": [
                    5.397995,
                    3.238797,
                    3.238797
                ],
                "label": "Ga",
                "properties": {}
            },
            {
                "species": [
                    {
                        "element": "Ga",
                        "occu": 1
                    }
                ],
                "abc": [
                    0.625,
                    0.625,
                    0.125
                ],
                "xyz": [
                    3.238797,
                    3.238797,
                    5.397995
                ],
                "label": "Ga",
                "properties": {}
            },
            {
                "species": [
                    {
                        "element": "Ga",
                        "occu": 1
                    }
                ],
                "abc": [
                    0.625,
                    0.125,
                    0.625
                ],
                "xyz": [
                    3.238797,
                    5.397995,
                    3.238797
                ],
                "label": "Ga",
                "properties": {}
            },
            {
                "species": [
                    {
                        "element": "O",
                        "occu": 1
                    }
                ],
                "abc": [
                    0.392958,
                    0.821125,
                    0.392958
                ],
                "xyz": [
                    5.242891170868,
                    3.3938965107359995,
                    5.242891170868
                ],
                "label": "O",
                "properties": {}
            },
            {
                "species": [
                    {
                        "element": "O",
                        "occu": 1
                    }
                ],
                "abc": [
                    0.857042,
                    0.857042,
                    0.428875
                ],
                "xyz": [
                    5.553098829132,
                    5.553098829132,
                    7.402093489264
                ],
                "label": "O",
                "properties": {}
            },
            {
                "species": [
                    {
                        "element": "O",
                        "occu": 1
                    }
                ],
                "abc": [
                    0.857042,
                    0.857042,
                    0.857042
                ],
                "xyz": [
                    7.402093489264,
                    7.402093489264,
                    7.402093489264
                ],
                "label": "O",
                "properties": {}
            },
            {
                "species": [
                    {
                        "element": "O",
                        "occu": 1
                    }
                ],
                "abc": [
                    0.428875,
                    0.857042,
                    0.857042
                ],
                "xyz": [
                    7.402093489264,
                    5.553098829132,
                    5.553098829132
                ],
                "label": "O",
                "properties": {}
            },
            {
                "species": [
                    {
                        "element": "O",
                        "occu": 1
                    }
                ],
                "abc": [
                    0.392958,
                    0.392958,
                    0.392958
                ],
                "xyz": [
                    3.3938965107359995,
                    3.3938965107359995,
                    3.3938965107359995
                ],
                "label": "O",
                "properties": {}
            },
            {
                "species": [
                    {
                        "element": "O",
                        "occu": 1
                    }
                ],
                "abc": [
                    0.821125,
                    0.392958,
                    0.392958
                ],
                "xyz": [
                    3.3938965107359995,
                    5.242891170868,
                    5.242891170868
                ],
                "label": "O",
                "properties": {}
            },
            {
                "species": [
                    {
                        "element": "O",
                        "occu": 1
                    }
                ],
                "abc": [
                    0.857042,
                    0.428875,
                    0.857042
                ],
                "xyz": [
                    5.553098829132,
                    7.402093489264,
                    5.553098829132
                ],
                "label": "O",
                "properties": {}
            },
            {
                "species": [
                    {
                        "element": "O",
                        "occu": 1
                    }
                ],
                "abc": [
                    0.392958,
                    0.392958,
                    0.821125
                ],
                "xyz": [
                    5.242891170868,
                    5.242891170868,
                    3.3938965107359995
                ],
                "label": "O",
                "properties": {}
            }
        ]
    },
    "spacegroup": {
        "source": "spglib",
        "symbol": "Fd-3m",
        "number": 227,
        "point_group": "m-3m",
        "crystal_system": "cubic",
        "hall": "F 4d 2 3 -1d"
    },
    "dielectric": {
        "epsilon_ionic": [
            [
                7.04779503,
                -0.0,
                0.0
            ],
            [
                -0.0,
                7.04787608,
                0.0
            ],
            [
                0.0,
                0.0,
                7.04775565
            ]
        ],
        "epsilon_ionic_avg": 7.0478089200000005,
        "epsilon_ionic_eig": [
            7.04779503,
            7.04787608,
            7.04775565
        ],
        "epsilon_electronic": [
            [
                4.56776604,
                0.0,
                0.0
            ],
            [
                0.0,
                4.56776604,
                0.0
            ],
            [
                0.0,
                -0.0,
                4.56776604
            ]
        ],
        "epsilon_electronic_avg": 4.56776604,
        "epsilon_electronic_eig": [
            4.56776604,
            4.56776604,
            4.56776604
        ]
    },
    "phonon": {
        "lowest_freq": -0.05577042504004919,
        "frequency": [
            -0.05577042504004919,
            -0.05577042504004919,
            -0.05577042504004919,
            3.8099269205061037,
            3.8099269205061037,
            3.8099269205061037,
            3.9741632593412155,
            3.9741632593412155,
            3.9741632593412155,
            3.9971494180061904,
            3.9971494180061904,
            3.9971494180061904,
            5.884065812079618,
            5.884065812079618,
            7.709321118471731,
            7.709321118471731,
            7.709321118471731,
            8.898802042204908,
            8.898802042204908,
            8.898802042204908,
            10.08192464128129,
            10.08192464128129,
            10.235497586748188,
            10.235497586748188,
            10.235497586748188,
            10.89447296033452,
            10.988516963544496,
            10.988516963544496,
            10.988516963544496,
            13.208757800755317,
            13.208757800755317,
            13.208757800755317,
            14.621584501680102,
            14.621584501680102,
            16.64105914865326,
            16.64105914865326,
            16.64105914865326,
            17.149306398802587,
            17.149306398802587,
            17.149306398802587,
            20.45705265434044,
            20.668230031731426
        ]
    },
    "born_effective_charge": {
        "avg_abs_trace": 2.439768095238095,
        "tensors": [
            [
                [
                    2.32441,
                    -0.0,
                    0.0
                ],
                [
                    -0.0,
                    2.32442,
                    0.0
                ],
                [
                    0.0,
                    -0.0,
                    2.32442
                ]
            ],
            [
                [
                    2.32441,
                    0.0,
                    0.0
                ],
                [
                    -0.0,
                    2.32442,
                    0.0
                ],
                [
                    -0.0,
                    -0.0,
                    2.32442
                ]
            ],
            [
                [
                    3.10738,
                    0.32827,
                    0.32827
                ],
                [
                    0.32829,
                    3.1074,
                    0.32829
                ],
                [
                    0.32807,
                    0.32807,
                    3.10738
                ]
            ],
            [
                [
                    3.10738,
                    -0.32827,
                    -0.32827
                ],
                [
                    -0.32829,
                    3.1074,
                    0.32829
                ],
                [
                    -0.32807,
                    0.32807,
                    3.10738
                ]
            ],
            [
                [
                    3.10738,
                    0.32827,
                    -0.32827
                ],
                [
                    0.32829,
                    3.1074,
                    -0.32829
                ],
                [
                    -0.32807,
                    -0.32807,
                    3.10738
                ]
            ],
            [
                [
                    3.10738,
                    -0.32827,
                    0.32827
                ],
                [
                    -0.32829,
                    3.1074,
                    -0.32829
                ],
                [
                    0.32807,
                    -0.32807,
                    3.10738
                ]
            ],
            [
                [
                    -2.13482,
                    0.09212,
                    -0.09212
                ],
                [
                    0.09217,
                    -2.13479,
                    0.09217
                ],
                [
                    -0.09217,
                    0.09217,
                    -2.13478
                ]
            ],
            [
                [
                    -2.13477,
                    -0.09221,
                    0.09221
                ],
                [
                    -0.09217,
                    -2.13479,
                    0.09217
                ],
                [
                    0.09217,
                    0.09217,
                    -2.13478
                ]
            ],
            [
                [
                    -2.13482,
                    -0.09212,
                    -0.09212
                ],
                [
                    -0.09213,
                    -2.13481,
                    -0.09213
                ],
                [
                    -0.09217,
                    -0.09217,
                    -2.13478
                ]
            ],
            [
                [
                    -2.13482,
                    0.09212,
                    0.09212
                ],
                [
                    0.09217,
                    -2.13479,
                    -0.09217
                ],
                [
                    0.09216,
                    -0.09216,
                    -2.13481
                ]
            ],
            [
                [
                    -2.13477,
                    -0.09221,
                    -0.09221
                ],
                [
                    -0.09217,
                    -2.13479,
                    -0.09217
                ],
                [
                    -0.09216,
                    -0.09216,
                    -2.13481
                ]
            ],
            [
                [
                    -2.13477,
                    0.09221,
                    0.09221
                ],
                [
                    0.09213,
                    -2.13481,
                    -0.09213
                ],
                [
                    0.09217,
                    -0.09217,
                    -2.13478
                ]
            ],
            [
                [
                    -2.13477,
                    0.09221,
                    -0.09221
                ],
                [
                    0.09213,
                    -2.13481,
                    0.09213
                ],
                [
                    -0.09216,
                    0.09216,
                    -2.13481
                ]
            ],
            [
                [
                    -2.13482,
                    -0.09212,
                    0.09212
                ],
                [
                    -0.09213,
                    -2.13481,
                    0.09213
                ],
                [
                    0.09216,
                    0.09216,
                    -2.13481
                ]
            ]
        ]
    },
    "band_gap": 1.6875999999999998,
    "is_direct": false,
    "formula": "Cd(GaO2)2"
}