{
    "mp_id": "mp-3397",
    "nelements": 3,
    "nsites": 28,
    "elements": [
        "Ba",
        "O",
        "Ti"
    ],
    "structure": {
        "@module": "pymatgen.core.structure",
        "@class": "Structure",
        "charge": null,
        "lattice": {
            "matrix": [
                [
                    6.18838605,
                    0.0,
                    0.00027099
                ],
                [
                    0.0,
                    7.70122283,
                    0.0
                ],
                [
                    -5.36644926,
                    0.0,
                    10.52577545
                ]
            ],
            "a": 6.188386055933338,
            "b": 7.70122283,
            "c": 11.814851945072238,
            "alpha": 90.0,
            "beta": 117.01174479880855,
            "gamma": 90.0,
            "volume": 501.6500787932876
        },
        "sites": [
            {
                "species": [
                    {
                        "element": "Ba",
                        "occu": 1
                    }
                ],
                "abc": [
                    0.0206128,
                    0.00156803,
                    0.30065363
                ],
                "xyz": [
                    -1.485882486258374,
                    0.0120757484341249,
                    3.1646181834700555
                ],
                "label": "Ba",
                "properties": {}
            },
            {
                "species": [
                    {
                        "element": "Ba",
                        "occu": 1
                    }
                ],
                "abc": [
                    0.9793872,
                    0.50156803,
                    0.19934637
                ],
                "xyz": [
                    4.991043906258374,
                    3.862687163434125,
                    2.098540531529944
                ],
                "label": "Ba",
                "properties": {}
            },
            {
                "species": [
                    {
                        "element": "Ba",
                        "occu": 1
                    }
                ],
                "abc": [
                    0.9793872,
                    0.99843197,
                    0.69934637
                ],
                "xyz": [
                    2.3078192762583734,
                    7.689147081565874,
                    7.361428256529944
                ],
                "label": "Ba",
                "properties": {}
            },
            {
                "species": [
                    {
                        "element": "Ba",
                        "occu": 1
                    }
                ],
                "abc": [
                    0.0206128,
                    0.49843197,
                    0.80065363
                ],
                "xyz": [
                    -4.169107116258374,
                    3.838535666565875,
                    8.427505908470055
                ],
                "label": "Ba",
                "properties": {}
            },
            {
                "species": [
                    {
                        "element": "Ba",
                        "occu": 1
                    }
                ],
                "abc": [
                    0.69849967,
                    0.3432705,
                    0.42769659
                ],
                "xyz": [
                    2.0273735648475806,
                    2.6436026114655147,
                    4.502027553496289
                ],
                "label": "Ba",
                "properties": {}
            },
            {
                "species": [
                    {
                        "element": "Ba",
                        "occu": 1
                    }
                ],
                "abc": [
                    0.30150033,
                    0.8432705,
                    0.07230341
                ],
                "xyz": [
                    1.4777878551524197,
                    6.4942140264655155,
                    0.7611311615037112
                ],
                "label": "Ba",
                "properties": {}
            },
            {
                "species": [
                    {
                        "element": "Ba",
                        "occu": 1
                    }
                ],
                "abc": [
                    0.30150033,
                    0.6567295,
                    0.57230341
                ],
                "xyz": [
                    -1.2054367748475803,
                    5.057620218534485,
                    6.02401888650371
                ],
                "label": "Ba",
                "properties": {}
            },
            {
                "species": [
                    {
                        "element": "Ba",
                        "occu": 1
                    }
                ],
                "abc": [
                    0.69849967,
                    0.1567295,
                    0.92769659
                ],
                "xyz": [
                    -0.6558510651524196,
                    1.207008803534485,
                    9.76491527849629
                ],
                "label": "Ba",
                "properties": {}
            },
            {
                "species": [
                    {
                        "element": "Ti",
                        "occu": 1
                    }
                ],
                "abc": [
                    0.65407892,
                    0.78075141,
                    0.41681984
                ],
                "xyz": [
                    1.810850342205748,
                    6.01274058324669,
                    4.387529287791459
                ],
                "label": "Ti",
                "properties": {}
            },
            {
                "species": [
                    {
                        "element": "Ti",
                        "occu": 1
                    }
                ],
                "abc": [
                    0.34592108,
                    0.28075141,
                    0.08318016
                ],
                "xyz": [
                    1.6943110777942525,
                    2.16212916824669,
                    0.8756294272085411
                ],
                "label": "Ti",
                "properties": {}
            },
            {
                "species": [
                    {
                        "element": "Ti",
                        "occu": 1
                    }
                ],
                "abc": [
                    0.34592108,
                    0.21924859,
                    0.58318016
                ],
                "xyz": [
                    -0.9889135522057475,
                    1.6884822467533096,
                    6.13851715220854
                ],
                "label": "Ti",
                "properties": {}
            },
            {
                "species": [
                    {
                        "element": "Ti",
                        "occu": 1
                    }
                ],
                "abc": [
                    0.65407892,
                    0.71924859,
                    0.91681984
                ],
                "xyz": [
                    -0.8723742877942531,
                    5.539093661753309,
                    9.650417012791458
                ],
                "label": "Ti",
                "properties": {}
            },
            {
                "species": [
                    {
                        "element": "O",
                        "occu": 1
                    }
                ],
                "abc": [
                    0.73442352,
                    0.67779274,
                    0.57414744
                ],
                "xyz": [
                    1.463763161441002,
                    5.219832923296254,
                    6.043546050062032
                ],
                "label": "O",
                "properties": {}
            },
            {
                "species": [
                    {
                        "element": "O",
                        "occu": 1
                    }
                ],
                "abc": [
                    0.26557648,
                    0.17779274,
                    0.92585256
                ],
                "xyz": [
                    -3.3250510014410017,
                    1.3692215082962542,
                    9.745388114937967
                ],
                "label": "O",
                "properties": {}
            },
            {
                "species": [
                    {
                        "element": "O",
                        "occu": 1
                    }
                ],
                "abc": [
                    0.26557648,
                    0.32220726,
                    0.42585256
                ],
                "xyz": [
                    -0.6418263714410015,
                    2.481389906703746,
                    4.482500389937966
                ],
                "label": "O",
                "properties": {}
            },
            {
                "species": [
                    {
                        "element": "O",
                        "occu": 1
                    }
                ],
                "abc": [
                    0.73442352,
                    0.82220726,
                    0.07414744
                ],
                "xyz": [
                    4.146987791441002,
                    6.332001321703745,
                    0.7806583250620327
                ],
                "label": "O",
                "properties": {}
            },
            {
                "species": [
                    {
                        "element": "O",
                        "occu": 1
                    }
                ],
                "abc": [
                    0.86133795,
                    0.67144268,
                    0.36340573
                ],
                "xyz": [
                    3.3800933432773377,
                    5.170929696252384,
                    3.8253605251943985
                ],
                "label": "O",
                "properties": {}
            },
            {
                "species": [
                    {
                        "element": "O",
                        "occu": 1
                    }
                ],
                "abc": [
                    0.13866205,
                    0.17144268,
                    0.13659427
                ],
                "xyz": [
                    0.1250680767226624,
                    1.3203182812523844,
                    1.437798189805601
                ],
                "label": "O",
                "properties": {}
            },
            {
                "species": [
                    {
                        "element": "O",
                        "occu": 1
                    }
                ],
                "abc": [
                    0.13866205,
                    0.32855732,
                    0.63659427
                ],
                "xyz": [
                    -2.558156553277338,
                    2.5302931337476156,
                    6.7006859148056
                ],
                "label": "O",
                "properties": {}
            },
            {
                "species": [
                    {
                        "element": "O",
                        "occu": 1
                    }
                ],
                "abc": [
                    0.86133795,
                    0.82855732,
                    0.86340573
                ],
                "xyz": [
                    0.696868713277337,
                    6.3809045487476155,
                    9.088248250194399
                ],
                "label": "O",
                "properties": {}
            },
            {
                "species": [
                    {
                        "element": "O",
                        "occu": 1
                    }
                ],
                "abc": [
                    0.32685108,
                    0.74486538,
                    0.30714393
                ],
                "xyz": [
                    0.37440834803744183,
                    5.736374269732625,
                    3.233016611384688
                ],
                "label": "O",
                "properties": {}
            },
            {
                "species": [
                    {
                        "element": "O",
                        "occu": 1
                    }
                ],
                "abc": [
                    0.67314892,
                    0.24486538,
                    0.19285607
                ],
                "xyz": [
                    3.1307530719625585,
                    1.8857628547326253,
                    2.030142103615312
                ],
                "label": "O",
                "properties": {}
            },
            {
                "species": [
                    {
                        "element": "O",
                        "occu": 1
                    }
                ],
                "abc": [
                    0.67314892,
                    0.25513462,
                    0.69285607
                ],
                "xyz": [
                    0.4475284419625578,
                    1.9648485602673744,
                    7.293029828615312
                ],
                "label": "O",
                "properties": {}
            },
            {
                "species": [
                    {
                        "element": "O",
                        "occu": 1
                    }
                ],
                "abc": [
                    0.32685108,
                    0.75513462,
                    0.80714393
                ],
                "xyz": [
                    -2.308816281962558,
                    5.815459975267374,
                    8.495904336384687
                ],
                "label": "O",
                "properties": {}
            },
            {
                "species": [
                    {
                        "element": "O",
                        "occu": 1
                    }
                ],
                "abc": [
                    0.27141823,
                    0.98718488,
                    0.56293042
                ],
                "xyz": [
                    -1.3412967475927984,
                    7.602530735286811,
                    5.925352746520337
                ],
                "label": "O",
                "properties": {}
            },
            {
                "species": [
                    {
                        "element": "O",
                        "occu": 1
                    }
                ],
                "abc": [
                    0.72858177,
                    0.48718488,
                    0.93706958
                ],
                "xyz": [
                    -0.519991092407202,
                    3.7519193202868104,
                    9.863581418479663
                ],
                "label": "O",
                "properties": {}
            },
            {
                "species": [
                    {
                        "element": "O",
                        "occu": 1
                    }
                ],
                "abc": [
                    0.72858177,
                    0.01281512,
                    0.43706958
                ],
                "xyz": [
                    2.163233537592798,
                    0.0986920947131896,
                    4.600693693479663
                ],
                "label": "O",
                "properties": {}
            },
            {
                "species": [
                    {
                        "element": "O",
                        "occu": 1
                    }
                ],
                "abc": [
                    0.27141823,
                    0.51281512,
                    0.06293042
                ],
                "xyz": [
                    1.341927882407202,
                    3.949303509713189,
                    0.6624650215203367
                ],
                "label": "O",
                "properties": {}
            }
        ]
    },
    "spacegroup": {
        "source": "spglib",
        "symbol": "P2_1/c",
        "number": 14,
        "point_group": "2/m",
        "crystal_system": "monoclinic",
        "hall": "-P 2ybc"
    },
    "dielectric": {
        "epsilon_ionic": [
            [
                9.91376583,
                1e-08,
                -0.83164333
            ],
            [
                1e-08,
                9.40910021,
                1e-08
            ],
            [
                -0.83164333,
                1e-08,
                11.14515513
            ]
        ],
        "epsilon_ionic_avg": 10.156007056666665,
        "epsilon_ionic_eig": [
            11.564211914100051,
            9.494709045899947,
            9.409100209999998
        ],
        "epsilon_electronic": [
            [
                3.98983561,
                0.0,
                0.04708463
            ],
            [
                0.0,
                4.08113283,
                0.0
            ],
            [
                0.04708662,
                0.0,
                3.87008861
            ]
        ],
        "epsilon_electronic_avg": 3.98035235,
        "epsilon_electronic_eig": [
            4.006132262178531,
            3.8537919578214686,
            4.08113283
        ]
    },
    "phonon": {
        "lowest_freq": -0.05338471174141424,
        "frequency": [
            -0.05338471174141424,
            -0.03560306224021615,
            -0.022671851042474673,
            1.454969904603323,
            1.6751968908058217,
            1.7370237549240317,
            1.8215501458808063,
            2.1621892700682057,
            2.2149069284015592,
            2.3539327008912214,
            2.4636440912564153,
            2.493531585453165,
            2.544112677566251,
            2.585580904976779,
            2.6083336609966485,
            2.7247229448418775,
            2.8733609267255225,
            2.898409688000781,
            3.023752625334992,
            3.067967666227533,
            3.1715372509803745,
            3.2140623977667415,
            3.3130127016115343,
            3.5998556338336334,
            3.7538962471891173,
            3.7658667319204384,
            3.8590895030537586,
            3.883730054735175,
            4.244855884831872,
            4.326024691826161,
            4.524049935137295,
            4.640772833735561,
            4.727565750254094,
            4.768786952078444,
            4.8800041200316775,
            4.922395618661394,
            4.9396415861756156,
            5.050587754633334,
            5.172176693003338,
            5.227719644000273,
            5.258496690976714,
            5.320945143137655,
            5.481383450939883,
            5.800840552501439,
            5.835896623082786,
            6.023870921301768,
            6.265809265129694,
            6.294046191925729,
            7.729849173363139,
            7.766433577839854,
            8.00709721081949,
            8.14044708119951,
            8.334795154172024,
            8.658788641622582,
            8.729380630053134,
            8.767344610857768,
            8.870638131455685,
            9.110075148731246,
            9.301441611501286,
            9.391778877903938,
            9.520582959071692,
            9.614080763349437,
            9.900590781280588,
            10.075710281360525,
            10.331100771168847,
            10.340712089604134,
            10.485387823876907,
            10.5565521949704,
            19.97091349633168,
            20.22416534692727,
            20.278765875985922,
            20.417210798606835,
            20.459799500261354,
            20.607945119164484,
            20.930979967744985,
            20.96192515603604,
            21.126889265314187,
            21.4245242747461,
            21.89783224534797,
            22.164709117532038,
            22.352879960519417,
            22.472203107874694,
            22.501517882901226,
            22.75177389199259
        ]
    },
    "born_effective_charge": {
        "avg_abs_trace": 2.5348552380952385,
        "tensors": [
            [
                [
                    2.77428,
                    -0.15329,
                    -0.14975
                ],
                [
                    0.05205,
                    2.61226,
                    -0.03886
                ],
                [
                    0.03895,
                    -0.20363,
                    3.00073
                ]
            ],
            [
                [
                    2.77424,
                    0.15329,
                    -0.14967
                ],
                [
                    -0.05205,
                    2.61226,
                    0.03886
                ],
                [
                    0.03891,
                    0.20359,
                    3.00079
                ]
            ],
            [
                [
                    2.77424,
                    -0.15329,
                    -0.14967
                ],
                [
                    0.05191,
                    2.61227,
                    -0.03874
                ],
                [
                    0.03891,
                    -0.20359,
                    3.00079
                ]
            ],
            [
                [
                    2.77428,
                    0.15329,
                    -0.14975
                ],
                [
                    -0.05191,
                    2.61227,
                    0.03874
                ],
                [
                    0.03895,
                    0.20363,
                    3.00073
                ]
            ],
            [
                [
                    2.67591,
                    0.07776,
                    0.17076
                ],
                [
                    0.06738,
                    3.14036,
                    0.01691
                ],
                [
                    -0.07962,
                    0.08858,
                    2.42536
                ]
            ],
            [
                [
                    2.67582,
                    -0.07768,
                    0.17075
                ],
                [
                    -0.06738,
                    3.14036,
                    -0.01691
                ],
                [
                    -0.07943,
                    -0.08868,
                    2.42546
                ]
            ],
            [
                [
                    2.67582,
                    0.07768,
                    0.17075
                ],
                [
                    0.06746,
                    3.14013,
                    0.0168
                ],
                [
                    -0.07943,
                    0.08868,
                    2.42546
                ]
            ],
            [
                [
                    2.67591,
                    -0.07776,
                    0.17076
                ],
                [
                    -0.06746,
                    3.14013,
                    -0.0168
                ],
                [
                    -0.07962,
                    -0.08858,
                    2.42536
                ]
            ],
            [
                [
                    3.46947,
                    -0.00941,
                    0.12846
                ],
                [
                    0.04952,
                    3.53682,
                    0.04894
                ],
                [
                    0.23826,
                    -0.00017,
                    2.98023
                ]
            ],
            [
                [
                    3.46949,
                    0.00932,
                    0.12839
                ],
                [
                    -0.04952,
                    3.53682,
                    -0.04894
                ],
                [
                    0.23802,
                    0.00028,
                    2.9803
                ]
            ],
            [
                [
                    3.46949,
                    -0.00932,
                    0.12839
                ],
                [
                    0.0493,
                    3.53804,
                    0.04906
                ],
                [
                    0.23802,
                    -0.00028,
                    2.9803
                ]
            ],
            [
                [
                    3.46947,
                    0.00941,
                    0.12846
                ],
                [
                    -0.0493,
                    3.53804,
                    -0.04906
                ],
                [
                    0.23826,
                    0.00017,
                    2.98023
                ]
            ],
            [
                [
                    -1.83124,
                    -0.20193,
                    0.26596
                ],
                [
                    -0.17708,
                    -1.9332,
                    0.68243
                ],
                [
                    0.22884,
                    0.56903,
                    -2.77751
                ]
            ],
            [
                [
                    -1.83117,
                    0.20183,
                    0.26588
                ],
                [
                    0.17708,
                    -1.9332,
                    -0.68243
                ],
                [
                    0.22873,
                    -0.56908,
                    -2.77746
                ]
            ],
            [
                [
                    -1.83117,
                    -0.20183,
                    0.26588
                ],
                [
                    -0.17724,
                    -1.93364,
                    0.68232
                ],
                [
                    0.22873,
                    0.56908,
                    -2.77746
                ]
            ],
            [
                [
                    -1.83124,
                    0.20193,
                    0.26596
                ],
                [
                    0.17724,
                    -1.93364,
                    -0.68232
                ],
                [
                    0.22884,
                    -0.56903,
                    -2.77751
                ]
            ],
            [
                [
                    -2.93426,
                    0.64317,
                    0.44545
                ],
                [
                    0.60567,
                    -2.06959,
                    -0.30297
                ],
                [
                    0.42604,
                    -0.21704,
                    -1.69725
                ]
            ],
            [
                [
                    -2.93442,
                    -0.64316,
                    0.44549
                ],
                [
                    -0.60567,
                    -2.06959,
                    0.30297
                ],
                [
                    0.42616,
                    0.21707,
                    -1.69731
                ]
            ],
            [
                [
                    -2.93442,
                    0.64316,
                    0.44549
                ],
                [
                    0.60517,
                    -2.06988,
                    -0.30268
                ],
                [
                    0.42616,
                    -0.21707,
                    -1.69731
                ]
            ],
            [
                [
                    -2.93426,
                    -0.64317,
                    0.44545
                ],
                [
                    -0.60517,
                    -2.06988,
                    0.30268
                ],
                [
                    0.42604,
                    0.21704,
                    -1.69725
                ]
            ],
            [
                [
                    -2.7823,
                    -0.21825,
                    -0.92326
                ],
                [
                    -0.18219,
                    -1.58326,
                    -0.31152
                ],
                [
                    -0.93423,
                    -0.0939,
                    -2.39798
                ]
            ],
            [
                [
                    -2.78244,
                    0.2183,
                    -0.92333
                ],
                [
                    0.18219,
                    -1.58326,
                    0.31152
                ],
                [
                    -0.9341,
                    0.09378,
                    -2.39783
                ]
            ],
            [
                [
                    -2.78244,
                    -0.2183,
                    -0.92333
                ],
                [
                    -0.18209,
                    -1.58357,
                    -0.31141
                ],
                [
                    -0.9341,
                    -0.09378,
                    -2.39783
                ]
            ],
            [
                [
                    -2.7823,
                    0.21825,
                    -0.92326
                ],
                [
                    0.18209,
                    -1.58357,
                    0.31141
                ],
                [
                    -0.93423,
                    0.0939,
                    -2.39798
                ]
            ],
            [
                [
                    -1.37166,
                    -0.31711,
                    0.06245
                ],
                [
                    -0.39655,
                    -3.70345,
                    -0.30156
                ],
                [
                    0.08169,
                    -0.20502,
                    -1.53378
                ]
            ],
            [
                [
                    -1.37172,
                    0.31723,
                    0.06242
                ],
                [
                    0.39655,
                    -3.70345,
                    0.30156
                ],
                [
                    0.08176,
                    0.20506,
                    -1.53375
                ]
            ],
            [
                [
                    -1.37172,
                    -0.31723,
                    0.06242
                ],
                [
                    -0.39645,
                    -3.70329,
                    -0.30158
                ],
                [
                    0.08176,
                    -0.20506,
                    -1.53375
                ]
            ],
            [
                [
                    -1.37166,
                    0.31711,
                    0.06245
                ],
                [
                    0.39645,
                    -3.70329,
                    0.30158
                ],
                [
                    0.08169,
                    0.20502,
                    -1.53378
                ]
            ]
        ]
    },
    "band_gap": 3.9782,
    "is_direct": false,
    "formula": "Ba2TiO4"
}