{
    "mp_id": "mp-30298",
    "nelements": 3,
    "nsites": 16,
    "elements": [
        "As",
        "K",
        "O"
    ],
    "structure": {
        "@module": "pymatgen.core.structure",
        "@class": "Structure",
        "charge": null,
        "lattice": {
            "matrix": [
                [
                    7.19570796,
                    0.0,
                    0.0
                ],
                [
                    0.0,
                    7.45488314,
                    0.0
                ],
                [
                    0.0,
                    0.0,
                    5.43395297
                ]
            ],
            "a": 7.19570796,
            "b": 7.45488314,
            "c": 5.43395297,
            "alpha": 90.0,
            "beta": 90.0,
            "gamma": 90.0,
            "volume": 291.49441920582603
        },
        "sites": [
            {
                "species": [
                    {
                        "element": "K",
                        "occu": 1
                    }
                ],
                "abc": [
                    0.36376543,
                    0.40840489,
                    0.25
                ],
                "xyz": [
                    2.6175498002238227,
                    3.0446107287545545,
                    1.3584882425
                ],
                "label": "K",
                "properties": {}
            },
            {
                "species": [
                    {
                        "element": "K",
                        "occu": 1
                    }
                ],
                "abc": [
                    0.36376543,
                    0.09159511,
                    0.75
                ],
                "xyz": [
                    2.6175498002238227,
                    0.6828308412454454,
                    4.0754647275
                ],
                "label": "K",
                "properties": {}
            },
            {
                "species": [
                    {
                        "element": "K",
                        "occu": 1
                    }
                ],
                "abc": [
                    0.63623457,
                    0.59159511,
                    0.75
                ],
                "xyz": [
                    4.578158159776177,
                    4.410272411245445,
                    4.0754647275
                ],
                "label": "K",
                "properties": {}
            },
            {
                "species": [
                    {
                        "element": "K",
                        "occu": 1
                    }
                ],
                "abc": [
                    0.63623457,
                    0.90840489,
                    0.25
                ],
                "xyz": [
                    4.578158159776177,
                    6.772052298754555,
                    1.3584882425
                ],
                "label": "K",
                "properties": {}
            },
            {
                "species": [
                    {
                        "element": "As",
                        "occu": 1
                    }
                ],
                "abc": [
                    0.85954512,
                    0.37675311,
                    0.25
                ],
                "xyz": [
                    6.1850356619631555,
                    2.8086504076815655,
                    1.3584882425
                ],
                "label": "As",
                "properties": {}
            },
            {
                "species": [
                    {
                        "element": "As",
                        "occu": 1
                    }
                ],
                "abc": [
                    0.14045488,
                    0.62324689,
                    0.75
                ],
                "xyz": [
                    1.0106722980368448,
                    4.646232732318435,
                    4.0754647275
                ],
                "label": "As",
                "properties": {}
            },
            {
                "species": [
                    {
                        "element": "As",
                        "occu": 1
                    }
                ],
                "abc": [
                    0.85954512,
                    0.12324689,
                    0.75
                ],
                "xyz": [
                    6.1850356619631555,
                    0.9187911623184346,
                    4.0754647275
                ],
                "label": "As",
                "properties": {}
            },
            {
                "species": [
                    {
                        "element": "As",
                        "occu": 1
                    }
                ],
                "abc": [
                    0.14045488,
                    0.87675311,
                    0.25
                ],
                "xyz": [
                    1.0106722980368448,
                    6.536091977681565,
                    1.3584882425
                ],
                "label": "As",
                "properties": {}
            },
            {
                "species": [
                    {
                        "element": "O",
                        "occu": 1
                    }
                ],
                "abc": [
                    0.2597747,
                    0.75,
                    0.5
                ],
                "xyz": [
                    1.8692628765966122,
                    5.591162355,
                    2.716976485
                ],
                "label": "O",
                "properties": {}
            },
            {
                "species": [
                    {
                        "element": "O",
                        "occu": 1
                    }
                ],
                "abc": [
                    0.7402253,
                    0.25,
                    0.0
                ],
                "xyz": [
                    5.326445083403388,
                    1.863720785,
                    0.0
                ],
                "label": "O",
                "properties": {}
            },
            {
                "species": [
                    {
                        "element": "O",
                        "occu": 1
                    }
                ],
                "abc": [
                    0.7402253,
                    0.25,
                    0.5
                ],
                "xyz": [
                    5.326445083403388,
                    1.863720785,
                    2.716976485
                ],
                "label": "O",
                "properties": {}
            },
            {
                "species": [
                    {
                        "element": "O",
                        "occu": 1
                    }
                ],
                "abc": [
                    0.2597747,
                    0.75,
                    0.0
                ],
                "xyz": [
                    1.8692628765966122,
                    5.591162355,
                    0.0
                ],
                "label": "O",
                "properties": {}
            },
            {
                "species": [
                    {
                        "element": "O",
                        "occu": 1
                    }
                ],
                "abc": [
                    0.71553615,
                    0.55938386,
                    0.25
                ],
                "xyz": [
                    5.148789170222754,
                    4.17014130670212,
                    1.3584882425
                ],
                "label": "O",
                "properties": {}
            },
            {
                "species": [
                    {
                        "element": "O",
                        "occu": 1
                    }
                ],
                "abc": [
                    0.28446385,
                    0.05938386,
                    0.25
                ],
                "xyz": [
                    2.046918789777246,
                    0.44269973670212037,
                    1.3584882425
                ],
                "label": "O",
                "properties": {}
            },
            {
                "species": [
                    {
                        "element": "O",
                        "occu": 1
                    }
                ],
                "abc": [
                    0.71553615,
                    0.94061614,
                    0.75
                ],
                "xyz": [
                    5.148789170222754,
                    7.01218340329788,
                    4.0754647275
                ],
                "label": "O",
                "properties": {}
            },
            {
                "species": [
                    {
                        "element": "O",
                        "occu": 1
                    }
                ],
                "abc": [
                    0.28446385,
                    0.44061614,
                    0.75
                ],
                "xyz": [
                    2.046918789777246,
                    3.2847418332978795,
                    4.0754647275
                ],
                "label": "O",
                "properties": {}
            }
        ]
    },
    "spacegroup": {
        "source": "spglib",
        "symbol": "Pbcm",
        "number": 57,
        "point_group": "mmm",
        "crystal_system": "orthorhombic",
        "hall": "-P 2c 2b"
    },
    "dielectric": {
        "epsilon_ionic": [
            [
                2.45994981,
                2.4e-07,
                2.1e-07
            ],
            [
                2.4e-07,
                4.75089509,
                4e-07
            ],
            [
                2.1e-07,
                4e-07,
                5.18744739
            ]
        ],
        "epsilon_ionic_avg": 4.1327640966666666,
        "epsilon_ionic_eig": [
            2.4599498099999573,
            4.75089508999966,
            5.187447390000383
        ],
        "epsilon_electronic": [
            [
                2.80049079,
                0.0,
                -0.0
            ],
            [
                0.0,
                3.28861744,
                0.0
            ],
            [
                0.0,
                0.0,
                3.54133573
            ]
        ],
        "epsilon_electronic_avg": 3.210147986666667,
        "epsilon_electronic_eig": [
            2.80049079,
            3.28861744,
            3.54133573
        ]
    },
    "phonon": {
        "lowest_freq": -0.1905695999830601,
        "frequency": [
            -0.1905695999830601,
            -0.09116486666384735,
            -0.04838234100834899,
            1.2726748905697616,
            1.3046911699170924,
            1.3552744028351147,
            2.0005714291123766,
            2.3846705633376275,
            2.3890423275512185,
            2.431000443032333,
            2.565463779205989,
            3.340089685147788,
            3.343346109120925,
            3.6651384072967153,
            3.7932664654833363,
            3.8045781640513137,
            3.9439113981439475,
            4.123638602495032,
            4.207436267975455,
            4.26841009938604,
            4.4168480877119105,
            4.455042069913409,
            4.514669843630228,
            4.592570430868464,
            4.617005725209704,
            4.882982894224032,
            7.461798234125701,
            7.567750175389016,
            7.658256084731476,
            7.661575065524622,
            8.346628414740684,
            8.46897168452177,
            8.502540184344038,
            8.523368825310873,
            9.51074007169976,
            9.68843592388315,
            13.610022264810564,
            13.684355570696251,
            15.213952861565952,
            15.25234674509314,
            15.941558839244559,
            16.15780962438322,
            19.546323867455733,
            19.98738454045145,
            24.219492600389668,
            24.384722479102198,
            24.496833520553686,
            24.770486619596067
        ]
    },
    "born_effective_charge": {
        "avg_abs_trace": 1.7698087500000002,
        "tensors": [
            [
                [
                    1.27356,
                    0.0481,
                    0.0
                ],
                [
                    -0.06538,
                    1.24974,
                    0.0
                ],
                [
                    -0.0001,
                    0.0,
                    1.15508
                ]
            ],
            [
                [
                    1.27356,
                    -0.0481,
                    0.0
                ],
                [
                    0.0654,
                    1.24979,
                    0.0
                ],
                [
                    -0.0001,
                    -0.0,
                    1.15508
                ]
            ],
            [
                [
                    1.27335,
                    0.04799,
                    0.0
                ],
                [
                    -0.0654,
                    1.24979,
                    0.0
                ],
                [
                    0.0001,
                    -0.0,
                    1.15508
                ]
            ],
            [
                [
                    1.27335,
                    -0.04799,
                    0.0
                ],
                [
                    0.06538,
                    1.24974,
                    -0.0
                ],
                [
                    0.0001,
                    0.0,
                    1.15508
                ]
            ],
            [
                [
                    1.22463,
                    -0.07928,
                    0.0
                ],
                [
                    0.26831,
                    2.58463,
                    0.0
                ],
                [
                    0.00039,
                    0.00051,
                    3.13124
                ]
            ],
            [
                [
                    1.22502,
                    -0.07954,
                    0.0
                ],
                [
                    0.26872,
                    2.58435,
                    0.0
                ],
                [
                    -0.00039,
                    -0.00051,
                    3.13124
                ]
            ],
            [
                [
                    1.22463,
                    0.07928,
                    0.0
                ],
                [
                    -0.26872,
                    2.58435,
                    0.0
                ],
                [
                    0.00039,
                    -0.00051,
                    3.13124
                ]
            ],
            [
                [
                    1.22502,
                    0.07954,
                    0.0
                ],
                [
                    -0.26831,
                    2.58463,
                    0.0
                ],
                [
                    -0.00039,
                    0.00051,
                    3.13124
                ]
            ],
            [
                [
                    -1.03203,
                    0.0,
                    0.0
                ],
                [
                    -0.00029,
                    -1.67988,
                    1.20181
                ],
                [
                    -0.0001,
                    1.51522,
                    -3.03199
                ]
            ],
            [
                [
                    -1.03186,
                    0.0,
                    0.0
                ],
                [
                    0.00029,
                    -1.67988,
                    -1.20181
                ],
                [
                    0.0001,
                    -1.51522,
                    -3.03199
                ]
            ],
            [
                [
                    -1.03186,
                    0.0,
                    -0.0
                ],
                [
                    0.00029,
                    -1.67988,
                    1.20181
                ],
                [
                    0.0001,
                    1.51522,
                    -3.03199
                ]
            ],
            [
                [
                    -1.03203,
                    0.0,
                    0.0
                ],
                [
                    -0.00029,
                    -1.67988,
                    -1.20181
                ],
                [
                    -0.0001,
                    -1.51522,
                    -3.03199
                ]
            ],
            [
                [
                    -1.46679,
                    0.3007,
                    0.0
                ],
                [
                    0.85446,
                    -2.15395,
                    0.0
                ],
                [
                    -0.00044,
                    6e-05,
                    -1.25433
                ]
            ],
            [
                [
                    -1.46588,
                    -0.29978,
                    0.0
                ],
                [
                    -0.85446,
                    -2.15395,
                    0.0
                ],
                [
                    0.00044,
                    6e-05,
                    -1.25433
                ]
            ],
            [
                [
                    -1.46679,
                    -0.3007,
                    0.0
                ],
                [
                    -0.855,
                    -2.15479,
                    0.0
                ],
                [
                    -0.00044,
                    -6e-05,
                    -1.25433
                ]
            ],
            [
                [
                    -1.46588,
                    0.29978,
                    0.0
                ],
                [
                    0.855,
                    -2.15479,
                    0.0
                ],
                [
                    0.00044,
                    -6e-05,
                    -1.25433
                ]
            ]
        ]
    },
    "band_gap": 3.7244,
    "is_direct": false,
    "formula": "KAsO2"
}