{
    "mp_id": "mp-3536",
    "nelements": 3,
    "nsites": 14,
    "elements": [
        "Al",
        "Mg",
        "O"
    ],
    "structure": {
        "@module": "pymatgen.core.structure",
        "@class": "Structure",
        "charge": null,
        "lattice": {
            "matrix": [
                [
                    0.0,
                    4.05257319,
                    4.05257319
                ],
                [
                    4.05257319,
                    0.0,
                    4.05257319
                ],
                [
                    4.05257319,
                    4.05257319,
                    0.0
                ]
            ],
            "a": 5.731203967807598,
            "b": 5.731203967807598,
            "c": 5.731203967807598,
            "alpha": 60.00000000000001,
            "beta": 60.00000000000001,
            "gamma": 60.00000000000001,
            "volume": 133.11365142568044
        },
        "sites": [
            {
                "species": [
                    {
                        "element": "Mg",
                        "occu": 1
                    }
                ],
                "abc": [
                    0.25,
                    0.25,
                    0.25
                ],
                "xyz": [
                    2.026286595,
                    2.026286595,
                    2.026286595
                ],
                "label": "Mg",
                "properties": {}
            },
            {
                "species": [
                    {
                        "element": "Mg",
                        "occu": 1
                    }
                ],
                "abc": [
                    0.0,
                    0.0,
                    0.0
                ],
                "xyz": [
                    0.0,
                    0.0,
                    0.0
                ],
                "label": "Mg",
                "properties": {}
            },
            {
                "species": [
                    {
                        "element": "Al",
                        "occu": 1
                    }
                ],
                "abc": [
                    0.125,
                    0.625,
                    0.625
                ],
                "xyz": [
                    5.0657164875000005,
                    3.0394298925000003,
                    3.0394298925000003
                ],
                "label": "Al",
                "properties": {}
            },
            {
                "species": [
                    {
                        "element": "Al",
                        "occu": 1
                    }
                ],
                "abc": [
                    0.625,
                    0.625,
                    0.625
                ],
                "xyz": [
                    5.0657164875000005,
                    5.0657164875000005,
                    5.0657164875000005
                ],
                "label": "Al",
                "properties": {}
            },
            {
                "species": [
                    {
                        "element": "Al",
                        "occu": 1
                    }
                ],
                "abc": [
                    0.625,
                    0.125,
                    0.625
                ],
                "xyz": [
                    3.0394298925000003,
                    5.0657164875000005,
                    3.0394298925000003
                ],
                "label": "Al",
                "properties": {}
            },
            {
                "species": [
                    {
                        "element": "Al",
                        "occu": 1
                    }
                ],
                "abc": [
                    0.625,
                    0.625,
                    0.125
                ],
                "xyz": [
                    3.0394298925000003,
                    3.0394298925000003,
                    5.0657164875000005
                ],
                "label": "Al",
                "properties": {}
            },
            {
                "species": [
                    {
                        "element": "O",
                        "occu": 1
                    }
                ],
                "abc": [
                    0.86149587,
                    0.86149587,
                    0.86149587
                ],
                "xyz": [
                    6.982550132115452,
                    6.982550132115452,
                    6.982550132115452
                ],
                "label": "O",
                "properties": {}
            },
            {
                "species": [
                    {
                        "element": "O",
                        "occu": 1
                    }
                ],
                "abc": [
                    0.83448862,
                    0.38850413,
                    0.38850413
                ],
                "xyz": [
                    3.1488828428845497,
                    4.956267630214373,
                    4.956267630214373
                ],
                "label": "O",
                "properties": {}
            },
            {
                "species": [
                    {
                        "element": "O",
                        "occu": 1
                    }
                ],
                "abc": [
                    0.38850413,
                    0.38850413,
                    0.83448862
                ],
                "xyz": [
                    4.956267630214373,
                    4.956267630214373,
                    3.1488828428845497
                ],
                "label": "O",
                "properties": {}
            },
            {
                "species": [
                    {
                        "element": "O",
                        "occu": 1
                    }
                ],
                "abc": [
                    0.38850413,
                    0.83448862,
                    0.38850413
                ],
                "xyz": [
                    4.956267630214373,
                    3.1488828428845497,
                    4.956267630214373
                ],
                "label": "O",
                "properties": {}
            },
            {
                "species": [
                    {
                        "element": "O",
                        "occu": 1
                    }
                ],
                "abc": [
                    0.86149587,
                    0.86149587,
                    0.41551138
                ],
                "xyz": [
                    5.175165344785628,
                    5.175165344785628,
                    6.982550132115452
                ],
                "label": "O",
                "properties": {}
            },
            {
                "species": [
                    {
                        "element": "O",
                        "occu": 1
                    }
                ],
                "abc": [
                    0.86149587,
                    0.41551138,
                    0.86149587
                ],
                "xyz": [
                    5.175165344785628,
                    6.982550132115452,
                    5.175165344785628
                ],
                "label": "O",
                "properties": {}
            },
            {
                "species": [
                    {
                        "element": "O",
                        "occu": 1
                    }
                ],
                "abc": [
                    0.38850413,
                    0.38850413,
                    0.38850413
                ],
                "xyz": [
                    3.1488828428845497,
                    3.1488828428845497,
                    3.1488828428845497
                ],
                "label": "O",
                "properties": {}
            },
            {
                "species": [
                    {
                        "element": "O",
                        "occu": 1
                    }
                ],
                "abc": [
                    0.41551138,
                    0.86149587,
                    0.86149587
                ],
                "xyz": [
                    6.982550132115452,
                    5.175165344785628,
                    5.175165344785628
                ],
                "label": "O",
                "properties": {}
            }
        ]
    },
    "spacegroup": {
        "source": "spglib",
        "symbol": "Fd-3m",
        "number": 227,
        "point_group": "m-3m",
        "crystal_system": "cubic",
        "hall": "F 4d 2 3 -1d"
    },
    "dielectric": {
        "epsilon_ionic": [
            [
                5.03990891,
                0.0,
                0.0
            ],
            [
                0.0,
                5.03986213,
                0.0
            ],
            [
                0.0,
                0.0,
                5.0386958
            ]
        ],
        "epsilon_ionic_avg": 5.039488946666666,
        "epsilon_ionic_eig": [
            5.03990891,
            5.03986213,
            5.0386958
        ],
        "epsilon_electronic": [
            [
                3.07582275,
                0.0,
                -0.0
            ],
            [
                0.0,
                3.07582275,
                0.0
            ],
            [
                -0.0,
                -0.0,
                3.07582275
            ]
        ],
        "epsilon_electronic_avg": 3.07582275,
        "epsilon_electronic_eig": [
            3.07582275,
            3.07582275,
            3.07582275
        ]
    },
    "phonon": {
        "lowest_freq": -0.062253836698670156,
        "frequency": [
            -0.062253836698670156,
            -0.062253836698670156,
            -0.062253836698670156,
            7.656818192296648,
            7.656818192296648,
            7.656818192296648,
            8.87661540371548,
            8.87661540371548,
            8.87661540371548,
            9.106910528786925,
            9.106910528786925,
            9.106910528786925,
            10.211154850548544,
            10.211154850548544,
            10.211154850548544,
            11.628633172134254,
            11.628633172134254,
            11.969420438505114,
            11.969420438505114,
            13.60925977375253,
            13.60925977375253,
            13.60925977375253,
            14.19741976183212,
            14.19741976183212,
            14.19741976183212,
            16.38689889463509,
            16.38689889463509,
            16.38689889463509,
            17.026862222434126,
            17.026862222434126,
            17.026862222434126,
            17.537941332353732,
            17.537941332353732,
            19.4109313350792,
            19.459387680500026,
            19.459387680500026,
            19.459387680500026,
            19.819896391319663,
            19.819896391319663,
            19.819896391319663,
            21.761999210742914,
            22.186416258028412
        ]
    },
    "born_effective_charge": {
        "avg_abs_trace": 2.156934761904762,
        "tensors": [
            [
                [
                    2.03827,
                    0.0,
                    0.0
                ],
                [
                    0.0,
                    2.0382,
                    -0.0
                ],
                [
                    -0.0,
                    -0.0,
                    2.03788
                ]
            ],
            [
                [
                    2.03827,
                    0.0,
                    0.0
                ],
                [
                    0.0,
                    2.0382,
                    -0.0
                ],
                [
                    -0.0,
                    -0.0,
                    2.03788
                ]
            ],
            [
                [
                    2.75568,
                    -0.29205,
                    -0.29205
                ],
                [
                    -0.29204,
                    2.75567,
                    0.29204
                ],
                [
                    -0.29203,
                    0.29203,
                    2.75538
                ]
            ],
            [
                [
                    2.75568,
                    0.29205,
                    0.29205
                ],
                [
                    0.29204,
                    2.75567,
                    0.29204
                ],
                [
                    0.29203,
                    0.29203,
                    2.75538
                ]
            ],
            [
                [
                    2.75568,
                    -0.29205,
                    0.29205
                ],
                [
                    -0.29204,
                    2.75567,
                    -0.29204
                ],
                [
                    0.29203,
                    -0.29203,
                    2.75538
                ]
            ],
            [
                [
                    2.75568,
                    0.29205,
                    -0.29205
                ],
                [
                    0.29204,
                    2.75567,
                    -0.29204
                ],
                [
                    -0.29203,
                    -0.29203,
                    2.75538
                ]
            ],
            [
                [
                    -1.88739,
                    0.00747,
                    0.00747
                ],
                [
                    0.00751,
                    -1.88738,
                    0.00751
                ],
                [
                    0.00747,
                    0.00747,
                    -1.88701
                ]
            ],
            [
                [
                    -1.88743,
                    -0.00737,
                    -0.00737
                ],
                [
                    -0.00751,
                    -1.88738,
                    0.00751
                ],
                [
                    -0.00747,
                    0.00747,
                    -1.88701
                ]
            ],
            [
                [
                    -1.88739,
                    0.00747,
                    -0.00747
                ],
                [
                    0.00751,
                    -1.88738,
                    -0.00751
                ],
                [
                    -0.00756,
                    -0.00756,
                    -1.88731
                ]
            ],
            [
                [
                    -1.88739,
                    -0.00747,
                    0.00747
                ],
                [
                    -0.00745,
                    -1.88739,
                    -0.00745
                ],
                [
                    0.00747,
                    -0.00747,
                    -1.88701
                ]
            ],
            [
                [
                    -1.88743,
                    0.00737,
                    -0.00737
                ],
                [
                    0.00745,
                    -1.88739,
                    -0.00745
                ],
                [
                    -0.00747,
                    -0.00747,
                    -1.88701
                ]
            ],
            [
                [
                    -1.88743,
                    -0.00737,
                    0.00737
                ],
                [
                    -0.00751,
                    -1.88738,
                    -0.00751
                ],
                [
                    0.00756,
                    -0.00756,
                    -1.88731
                ]
            ],
            [
                [
                    -1.88743,
                    0.00737,
                    0.00737
                ],
                [
                    0.00745,
                    -1.88739,
                    0.00745
                ],
                [
                    0.00756,
                    0.00756,
                    -1.88731
                ]
            ],
            [
                [
                    -1.88739,
                    -0.00747,
                    -0.00747
                ],
                [
                    -0.00745,
                    -1.88739,
                    0.00745
                ],
                [
                    -0.00756,
                    0.00756,
                    -1.88731
                ]
            ]
        ]
    },
    "band_gap": 5.2213,
    "is_direct": false,
    "formula": "MgAl2O4"
}