{
    "mp_id": "mp-3285",
    "nelements": 3,
    "nsites": 34,
    "elements": [
        "Na",
        "O",
        "Ta"
    ],
    "structure": {
        "@module": "pymatgen.core.structure",
        "@class": "Structure",
        "charge": null,
        "lattice": {
            "matrix": [
                [
                    3.11792525,
                    1.80013465,
                    12.2673344
                ],
                [
                    -3.11792525,
                    1.80013465,
                    12.2673344
                ],
                [
                    0.0,
                    -3.6002693,
                    12.2673344
                ]
            ],
            "a": 12.784734487041236,
            "b": 12.784734487041236,
            "c": 12.78473434663176,
            "alpha": 28.231159925674447,
            "beta": 28.231159925674447,
            "gamma": 28.231163758233674,
            "volume": 413.11612316982985
        },
        "sites": [
            {
                "species": [
                    {
                        "element": "Na",
                        "occu": 1
                    }
                ],
                "abc": [
                    0.16432821,
                    0.16432821,
                    0.16432821
                ],
                "xyz": [
                    0.0,
                    0.0,
                    6.047607310270272
                ],
                "label": "Na",
                "properties": {}
            },
            {
                "species": [
                    {
                        "element": "Na",
                        "occu": 1
                    }
                ],
                "abc": [
                    0.33567179,
                    0.33567179,
                    0.33567179
                ],
                "xyz": [
                    0.0,
                    0.0,
                    12.353394289729728
                ],
                "label": "Na",
                "properties": {}
            },
            {
                "species": [
                    {
                        "element": "Na",
                        "occu": 1
                    }
                ],
                "abc": [
                    0.83567179,
                    0.83567179,
                    0.83567179
                ],
                "xyz": [
                    0.0,
                    0.0,
                    30.75439588972973
                ],
                "label": "Na",
                "properties": {}
            },
            {
                "species": [
                    {
                        "element": "Na",
                        "occu": 1
                    }
                ],
                "abc": [
                    0.66432821,
                    0.66432821,
                    0.66432821
                ],
                "xyz": [
                    0.0,
                    0.0,
                    24.448608910270266
                ],
                "label": "Na",
                "properties": {}
            },
            {
                "species": [
                    {
                        "element": "Ta",
                        "occu": 1
                    }
                ],
                "abc": [
                    0.25,
                    0.61456658,
                    0.88543342
                ],
                "xyz": [
                    -1.1366913450881448,
                    -1.631462501330009,
                    21.467835199999996
                ],
                "label": "Ta",
                "properties": {}
            },
            {
                "species": [
                    {
                        "element": "Ta",
                        "occu": 1
                    }
                ],
                "abc": [
                    0.61456658,
                    0.88543342,
                    0.25
                ],
                "xyz": [
                    -0.8445425598237102,
                    1.8001346499999997,
                    21.4678352
                ],
                "label": "Ta",
                "properties": {}
            },
            {
                "species": [
                    {
                        "element": "Ta",
                        "occu": 1
                    }
                ],
                "abc": [
                    0.5,
                    0.5,
                    0.5
                ],
                "xyz": [
                    0.0,
                    0.0,
                    18.4010016
                ],
                "label": "Ta",
                "properties": {}
            },
            {
                "species": [
                    {
                        "element": "Ta",
                        "occu": 1
                    }
                ],
                "abc": [
                    0.0,
                    0.0,
                    0.0
                ],
                "xyz": [
                    0.0,
                    0.0,
                    0.0
                ],
                "label": "Ta",
                "properties": {}
            },
            {
                "species": [
                    {
                        "element": "Ta",
                        "occu": 1
                    }
                ],
                "abc": [
                    0.88543342,
                    0.25,
                    0.61456658
                ],
                "xyz": [
                    1.981233904911855,
                    -0.16867214866999092,
                    21.4678352
                ],
                "label": "Ta",
                "properties": {}
            },
            {
                "species": [
                    {
                        "element": "Ta",
                        "occu": 1
                    }
                ],
                "abc": [
                    0.38543342,
                    0.11456658,
                    0.75
                ],
                "xyz": [
                    0.8445425598237101,
                    -1.8001346499999995,
                    15.334168
                ],
                "label": "Ta",
                "properties": {}
            },
            {
                "species": [
                    {
                        "element": "Ta",
                        "occu": 1
                    }
                ],
                "abc": [
                    0.75,
                    0.38543342,
                    0.11456658
                ],
                "xyz": [
                    1.136691345088145,
                    1.631462501330009,
                    15.334168
                ],
                "label": "Ta",
                "properties": {}
            },
            {
                "species": [
                    {
                        "element": "Ta",
                        "occu": 1
                    }
                ],
                "abc": [
                    0.11456658,
                    0.75,
                    0.38543342
                ],
                "xyz": [
                    -1.9812339049118552,
                    0.1686721486699907,
                    15.334168
                ],
                "label": "Ta",
                "properties": {}
            },
            {
                "species": [
                    {
                        "element": "O",
                        "occu": 1
                    }
                ],
                "abc": [
                    0.74675598,
                    0.44250051,
                    0.21939013
                ],
                "xyz": [
                    0.9486458123636172,
                    1.3509582656243695,
                    17.280339138969726
                ],
                "label": "O",
                "properties": {}
            },
            {
                "species": [
                    {
                        "element": "O",
                        "occu": 1
                    }
                ],
                "abc": [
                    0.44250051,
                    0.21939013,
                    0.74675598
                ],
                "xyz": [
                    0.695641487339095,
                    -1.497030353810738,
                    17.280339138969726
                ],
                "label": "O",
                "properties": {}
            },
            {
                "species": [
                    {
                        "element": "O",
                        "occu": 1
                    }
                ],
                "abc": [
                    0.21939013,
                    0.74675598,
                    0.44250051
                ],
                "xyz": [
                    -1.6442872997027123,
                    0.1460720881863684,
                    17.280339138969726
                ],
                "label": "O",
                "properties": {}
            },
            {
                "species": [
                    {
                        "element": "O",
                        "occu": 1
                    }
                ],
                "abc": [
                    0.28060987,
                    0.05749949,
                    0.75324402
                ],
                "xyz": [
                    0.6956414873390949,
                    -2.103238946189262,
                    13.387996861030272
                ],
                "label": "O",
                "properties": {}
            },
            {
                "species": [
                    {
                        "element": "O",
                        "occu": 1
                    }
                ],
                "abc": [
                    0.05749949,
                    0.75324402,
                    0.28060987
                ],
                "xyz": [
                    -2.1692794376363826,
                    0.44917638437563046,
                    13.38799686103027
                ],
                "label": "O",
                "properties": {}
            },
            {
                "species": [
                    {
                        "element": "O",
                        "occu": 1
                    }
                ],
                "abc": [
                    0.75324402,
                    0.28060987,
                    0.05749949
                ],
                "xyz": [
                    1.4736379502972876,
                    1.6540625618136315,
                    13.38799686103027
                ],
                "label": "O",
                "properties": {}
            },
            {
                "species": [
                    {
                        "element": "O",
                        "occu": 1
                    }
                ],
                "abc": [
                    0.25324402,
                    0.55749949,
                    0.78060987
                ],
                "xyz": [
                    -0.9486458123636174,
                    -1.3509582656243697,
                    19.521664061030272
                ],
                "label": "O",
                "properties": {}
            },
            {
                "species": [
                    {
                        "element": "O",
                        "occu": 1
                    }
                ],
                "abc": [
                    0.55749949,
                    0.78060987,
                    0.25324402
                ],
                "xyz": [
                    -0.695641487339095,
                    1.4970303538107377,
                    19.521664061030272
                ],
                "label": "O",
                "properties": {}
            },
            {
                "species": [
                    {
                        "element": "O",
                        "occu": 1
                    }
                ],
                "abc": [
                    0.78060987,
                    0.25324402,
                    0.55749949
                ],
                "xyz": [
                    1.6442872997027125,
                    -0.1460720881863682,
                    19.521664061030272
                ],
                "label": "O",
                "properties": {}
            },
            {
                "species": [
                    {
                        "element": "O",
                        "occu": 1
                    }
                ],
                "abc": [
                    0.71939013,
                    0.94250051,
                    0.24675598
                ],
                "xyz": [
                    -0.695641487339095,
                    2.1032389461892618,
                    23.414006338969727
                ],
                "label": "O",
                "properties": {}
            },
            {
                "species": [
                    {
                        "element": "O",
                        "occu": 1
                    }
                ],
                "abc": [
                    0.94250051,
                    0.24675598,
                    0.71939013
                ],
                "xyz": [
                    2.169279437636382,
                    -0.44917638437563,
                    23.414006338969727
                ],
                "label": "O",
                "properties": {}
            },
            {
                "species": [
                    {
                        "element": "O",
                        "occu": 1
                    }
                ],
                "abc": [
                    0.24675598,
                    0.71939013,
                    0.94250051
                ],
                "xyz": [
                    -1.4736379502972872,
                    -1.6540625618136318,
                    23.414006338969727
                ],
                "label": "O",
                "properties": {}
            },
            {
                "species": [
                    {
                        "element": "O",
                        "occu": 1
                    }
                ],
                "abc": [
                    0.99686805,
                    0.50313195,
                    0.25
                ],
                "xyz": [
                    1.539432253026525,
                    1.8001346500000002,
                    21.467835199999996
                ],
                "label": "O",
                "properties": {}
            },
            {
                "species": [
                    {
                        "element": "O",
                        "occu": 1
                    }
                ],
                "abc": [
                    0.25,
                    0.99686805,
                    0.50313195
                ],
                "xyz": [
                    -2.3286787515132623,
                    0.4331198673487975,
                    21.467835199999996
                ],
                "label": "O",
                "properties": {}
            },
            {
                "species": [
                    {
                        "element": "O",
                        "occu": 1
                    }
                ],
                "abc": [
                    0.50313195,
                    0.25,
                    0.99686805
                ],
                "xyz": [
                    0.7892464984867376,
                    -2.2332545173487977,
                    21.467835199999996
                ],
                "label": "O",
                "properties": {}
            },
            {
                "species": [
                    {
                        "element": "O",
                        "occu": 1
                    }
                ],
                "abc": [
                    0.00313195,
                    0.49686805,
                    0.75
                ],
                "xyz": [
                    -1.5394322530265248,
                    -1.8001346499999997,
                    15.334168
                ],
                "label": "O",
                "properties": {}
            },
            {
                "species": [
                    {
                        "element": "O",
                        "occu": 1
                    }
                ],
                "abc": [
                    0.75,
                    0.00313195,
                    0.49686805
                ],
                "xyz": [
                    2.3286787515132628,
                    -0.4331198673487977,
                    15.334168000000002
                ],
                "label": "O",
                "properties": {}
            },
            {
                "species": [
                    {
                        "element": "O",
                        "occu": 1
                    }
                ],
                "abc": [
                    0.49686805,
                    0.75,
                    0.00313195
                ],
                "xyz": [
                    -0.7892464984867378,
                    2.2332545173487977,
                    15.334168000000002
                ],
                "label": "O",
                "properties": {}
            },
            {
                "species": [
                    {
                        "element": "O",
                        "occu": 1
                    }
                ],
                "abc": [
                    0.09461357,
                    0.09461357,
                    0.09461357
                ],
                "xyz": [
                    0.0,
                    0.0,
                    3.4819689059034236
                ],
                "label": "O",
                "properties": {}
            },
            {
                "species": [
                    {
                        "element": "O",
                        "occu": 1
                    }
                ],
                "abc": [
                    0.40538643,
                    0.40538643,
                    0.40538643
                ],
                "xyz": [
                    0.0,
                    0.0,
                    14.919032694096575
                ],
                "label": "O",
                "properties": {}
            },
            {
                "species": [
                    {
                        "element": "O",
                        "occu": 1
                    }
                ],
                "abc": [
                    0.90538643,
                    0.90538643,
                    0.90538643
                ],
                "xyz": [
                    0.0,
                    0.0,
                    33.32003429409657
                ],
                "label": "O",
                "properties": {}
            },
            {
                "species": [
                    {
                        "element": "O",
                        "occu": 1
                    }
                ],
                "abc": [
                    0.59461357,
                    0.59461357,
                    0.59461357
                ],
                "xyz": [
                    0.0,
                    0.0,
                    21.882970505903423
                ],
                "label": "O",
                "properties": {}
            }
        ]
    },
    "spacegroup": {
        "source": "spglib",
        "symbol": "R-3c",
        "number": 167,
        "point_group": "-3m",
        "crystal_system": "trigonal",
        "hall": "-R 3 2\"c"
    },
    "dielectric": {
        "epsilon_ionic": [
            [
                22.27764131,
                0.0,
                -0.0
            ],
            [
                0.0,
                22.27755842,
                2.389e-05
            ],
            [
                -0.0,
                2.389e-05,
                29.29427615
            ]
        ],
        "epsilon_ionic_avg": 24.61649196,
        "epsilon_ionic_eig": [
            29.29427615008134,
            22.27755841991866,
            22.27764131
        ],
        "epsilon_electronic": [
            [
                4.78812402,
                0.0,
                0.0
            ],
            [
                0.0,
                4.78812488,
                0.0
            ],
            [
                0.0,
                -0.0,
                5.0667937
            ]
        ],
        "epsilon_electronic_avg": 4.8810142,
        "epsilon_electronic_eig": [
            4.78812402,
            4.78812488,
            5.0667937
        ]
    },
    "phonon": {
        "lowest_freq": -0.047165774369569834,
        "frequency": [
            -0.047165774369569834,
            -0.017080019632210352,
            -0.01708001805820656,
            1.7418908722062683,
            1.741891019529003,
            2.6817119820563122,
            2.6817119911698986,
            3.002040143193519,
            3.00204017168749,
            3.0479324584522542,
            3.211579156196796,
            3.355653260327734,
            3.3556534278421473,
            3.501817546008376,
            3.572575796669467,
            3.733451272673096,
            3.7334514559674,
            4.07430153231354,
            4.195564218889999,
            4.1955645334509475,
            4.355876758602866,
            4.355877123305743,
            4.490180663332098,
            4.502714630714841,
            4.502714834258825,
            4.715843349443267,
            4.858286714906784,
            4.877033939851396,
            4.877034160346181,
            4.92760814545416,
            5.338095391109218,
            5.338095459785434,
            5.428711311832878,
            5.428711379362752,
            5.803684197618793,
            6.162572535121369,
            6.294162701367311,
            6.366689062696467,
            6.366689101083787,
            6.959888390947586,
            6.959888461178634,
            7.218870339564445,
            7.436601581592234,
            7.7425181255421975,
            7.94602600700551,
            7.946026222308214,
            8.305423814881001,
            8.30542416799983,
            9.38267932831427,
            9.40098731004883,
            9.400987479031171,
            9.49127364486588,
            9.49127426286544,
            9.60973483880176,
            9.609735233006388,
            9.831582038418059,
            10.095754011252836,
            10.09575407177336,
            10.160100193118579,
            10.162499902564958,
            10.877076771255965,
            11.815402500948268,
            11.81540304909746,
            11.880971866734141,
            11.913804741753843,
            12.27072155791649,
            12.270721996097958,
            12.355636041952623,
            12.355636081513538,
            12.621857710325907,
            12.621857710325907,
            13.156728507777215,
            13.156799208058093,
            13.55308045263922,
            14.64689076906294,
            14.912221545253013,
            15.697986508116571,
            15.697986663805409,
            15.703335765859931,
            15.703335921495736,
            15.869312266549326,
            16.913169605806257,
            16.913169678057685,
            17.10940804262367,
            17.109408256891864,
            18.948799813459193,
            18.94880013590722,
            19.010125187234344,
            19.023028803905664,
            19.030935047128153,
            19.030935560818364,
            20.34575828580796,
            20.34575894648656,
            20.442884177210505,
            20.44288489452649,
            24.42979818643705,
            25.521362211177927,
            25.521362354822372,
            25.531606409377687,
            25.563365003300433,
            25.56336514670886,
            25.831659630593567
        ]
    },
    "born_effective_charge": {
        "avg_abs_trace": 3.602580588235295,
        "tensors": [
            [
                [
                    1.12524,
                    -0.00656,
                    0.0
                ],
                [
                    0.00656,
                    1.12524,
                    0.0
                ],
                [
                    -0.0,
                    -0.0,
                    1.24597
                ]
            ],
            [
                [
                    1.12524,
                    0.00656,
                    -0.0
                ],
                [
                    -0.00656,
                    1.12523,
                    0.0
                ],
                [
                    -0.0,
                    -0.0,
                    1.24597
                ]
            ],
            [
                [
                    1.12524,
                    -0.00656,
                    0.0
                ],
                [
                    0.00656,
                    1.12523,
                    0.0
                ],
                [
                    -0.0,
                    -0.0,
                    1.24597
                ]
            ],
            [
                [
                    1.12524,
                    0.00656,
                    -0.0
                ],
                [
                    -0.00656,
                    1.12524,
                    0.0
                ],
                [
                    -0.0,
                    -0.0,
                    1.24597
                ]
            ],
            [
                [
                    7.44336,
                    0.6487,
                    -1.50595
                ],
                [
                    0.64871,
                    6.69433,
                    -0.86945
                ],
                [
                    -0.50501,
                    -0.29155,
                    6.77024
                ]
            ],
            [
                [
                    6.31999,
                    -0.0,
                    -0.0
                ],
                [
                    2e-05,
                    7.81793,
                    1.73892
                ],
                [
                    2e-05,
                    0.58313,
                    6.77024
                ]
            ],
            [
                [
                    6.20758,
                    -0.01395,
                    -1e-05
                ],
                [
                    0.01395,
                    6.20756,
                    1e-05
                ],
                [
                    -0.0,
                    -0.0,
                    9.73381
                ]
            ],
            [
                [
                    6.20758,
                    0.01395,
                    1e-05
                ],
                [
                    -0.01395,
                    6.20756,
                    1e-05
                ],
                [
                    -0.0,
                    -0.0,
                    9.73381
                ]
            ],
            [
                [
                    7.44336,
                    -0.6487,
                    1.50595
                ],
                [
                    -0.6487,
                    6.69436,
                    -0.86944
                ],
                [
                    0.50499,
                    -0.29158,
                    6.77024
                ]
            ],
            [
                [
                    6.31965,
                    -0.0,
                    -0.0
                ],
                [
                    -2e-05,
                    7.81793,
                    1.73892
                ],
                [
                    -2e-05,
                    0.58313,
                    6.77024
                ]
            ],
            [
                [
                    7.44346,
                    0.64872,
                    -1.50593
                ],
                [
                    0.6487,
                    6.69436,
                    -0.86944
                ],
                [
                    -0.50499,
                    -0.29158,
                    6.77024
                ]
            ],
            [
                [
                    7.44346,
                    -0.64872,
                    1.50593
                ],
                [
                    -0.64871,
                    6.69433,
                    -0.86945
                ],
                [
                    0.50501,
                    -0.29155,
                    6.77024
                ]
            ],
            [
                [
                    -1.79378,
                    -0.70849,
                    1.04768
                ],
                [
                    -0.69438,
                    -2.13755,
                    1.35923
                ],
                [
                    0.99582,
                    1.43793,
                    -4.48656
                ]
            ],
            [
                [
                    -1.44415,
                    0.49248,
                    0.65323
                ],
                [
                    0.50666,
                    -2.48714,
                    -1.58697
                ],
                [
                    0.74737,
                    -1.58137,
                    -4.48656
                ]
            ],
            [
                [
                    -2.65899,
                    0.19481,
                    -1.70102
                ],
                [
                    0.2089,
                    -1.27224,
                    0.22772
                ],
                [
                    -1.74319,
                    0.14344,
                    -4.48656
                ]
            ],
            [
                [
                    -1.44415,
                    -0.49248,
                    -0.65323
                ],
                [
                    -0.50659,
                    -2.48718,
                    -1.58705
                ],
                [
                    -0.74733,
                    -1.58133,
                    -4.48659
                ]
            ],
            [
                [
                    -1.79378,
                    0.70849,
                    -1.04768
                ],
                [
                    0.69434,
                    -2.13748,
                    1.35934
                ],
                [
                    -0.99581,
                    1.43787,
                    -4.48659
                ]
            ],
            [
                [
                    -2.65899,
                    -0.19481,
                    1.70102
                ],
                [
                    -0.20896,
                    -1.2723,
                    0.2277
                ],
                [
                    1.74314,
                    0.14346,
                    -4.48659
                ]
            ],
            [
                [
                    -1.79379,
                    -0.70848,
                    1.04777
                ],
                [
                    -0.69434,
                    -2.13748,
                    1.35934
                ],
                [
                    0.99581,
                    1.43787,
                    -4.48659
                ]
            ],
            [
                [
                    -1.44413,
                    0.49249,
                    0.65341
                ],
                [
                    0.50659,
                    -2.48718,
                    -1.58705
                ],
                [
                    0.74733,
                    -1.58133,
                    -4.48659
                ]
            ],
            [
                [
                    -2.65908,
                    0.19479,
                    -1.70106
                ],
                [
                    0.20896,
                    -1.2723,
                    0.2277
                ],
                [
                    -1.74314,
                    0.14346,
                    -4.48659
                ]
            ],
            [
                [
                    -1.44413,
                    -0.49249,
                    -0.65341
                ],
                [
                    -0.50666,
                    -2.48714,
                    -1.58697
                ],
                [
                    -0.74737,
                    -1.58137,
                    -4.48656
                ]
            ],
            [
                [
                    -1.79379,
                    0.70848,
                    -1.04777
                ],
                [
                    0.69438,
                    -2.13755,
                    1.35923
                ],
                [
                    -0.99582,
                    1.43793,
                    -4.48656
                ]
            ],
            [
                [
                    -2.65908,
                    -0.19479,
                    1.70106
                ],
                [
                    -0.2089,
                    -1.27224,
                    0.22772
                ],
                [
                    1.74319,
                    0.14344,
                    -4.48656
                ]
            ],
            [
                [
                    -2.26205,
                    -0.0,
                    0.0
                ],
                [
                    -0.0,
                    -5.09765,
                    0.1011
                ],
                [
                    1e-05,
                    -0.17815,
                    -1.05498
                ]
            ],
            [
                [
                    -4.38863,
                    -1.22832,
                    -0.08753
                ],
                [
                    -1.22785,
                    -2.97093,
                    -0.05052
                ],
                [
                    0.15428,
                    0.08908,
                    -1.05498
                ]
            ],
            [
                [
                    -4.38863,
                    1.22832,
                    0.08753
                ],
                [
                    1.22791,
                    -2.97092,
                    -0.05058
                ],
                [
                    -0.15428,
                    0.08907,
                    -1.05498
                ]
            ],
            [
                [
                    -2.26195,
                    -0.0,
                    -0.0
                ],
                [
                    0.0,
                    -5.09765,
                    0.1011
                ],
                [
                    -1e-05,
                    -0.17815,
                    -1.05498
                ]
            ],
            [
                [
                    -4.38887,
                    -1.22743,
                    -0.08757
                ],
                [
                    -1.22791,
                    -2.97092,
                    -0.05058
                ],
                [
                    0.15428,
                    0.08907,
                    -1.05498
                ]
            ],
            [
                [
                    -4.38887,
                    1.22743,
                    0.08757
                ],
                [
                    1.22785,
                    -2.97093,
                    -0.05052
                ],
                [
                    -0.15428,
                    0.08908,
                    -1.05498
                ]
            ],
            [
                [
                    -3.41551,
                    -0.12511,
                    4e-05
                ],
                [
                    0.12494,
                    -3.41561,
                    -0.0
                ],
                [
                    -0.0,
                    -0.0,
                    -1.22605
                ]
            ],
            [
                [
                    -3.41551,
                    0.12511,
                    -4e-05
                ],
                [
                    -0.12501,
                    -3.41564,
                    1e-05
                ],
                [
                    -0.0,
                    -0.0,
                    -1.22601
                ]
            ],
            [
                [
                    -3.41577,
                    -0.1248,
                    -3e-05
                ],
                [
                    0.12501,
                    -3.41564,
                    1e-05
                ],
                [
                    -0.0,
                    -0.0,
                    -1.22601
                ]
            ],
            [
                [
                    -3.41577,
                    0.1248,
                    3e-05
                ],
                [
                    -0.12494,
                    -3.41561,
                    -0.0
                ],
                [
                    -0.0,
                    -0.0,
                    -1.22605
                ]
            ]
        ]
    },
    "band_gap": 3.8524000000000003,
    "is_direct": false,
    "formula": "Na2Ta4O11"
}