{
    "mp_id": "mp-3614",
    "nelements": 3,
    "nsites": 5,
    "elements": [
        "K",
        "O",
        "Ta"
    ],
    "structure": {
        "@module": "pymatgen.core.structure",
        "@class": "Structure",
        "charge": null,
        "lattice": {
            "matrix": [
                [
                    4.01094196,
                    0.0,
                    0.0
                ],
                [
                    0.0,
                    4.01094196,
                    0.0
                ],
                [
                    0.0,
                    0.0,
                    4.01094196
                ]
            ],
            "a": 4.01094196,
            "b": 4.01094196,
            "c": 4.01094196,
            "alpha": 90.0,
            "beta": 90.0,
            "gamma": 90.0,
            "volume": 64.52665210790616
        },
        "sites": [
            {
                "species": [
                    {
                        "element": "K",
                        "occu": 1
                    }
                ],
                "abc": [
                    0.5,
                    0.5,
                    0.5
                ],
                "xyz": [
                    2.00547098,
                    2.00547098,
                    2.00547098
                ],
                "label": "K",
                "properties": {}
            },
            {
                "species": [
                    {
                        "element": "Ta",
                        "occu": 1
                    }
                ],
                "abc": [
                    0.0,
                    0.0,
                    0.0
                ],
                "xyz": [
                    0.0,
                    0.0,
                    0.0
                ],
                "label": "Ta",
                "properties": {}
            },
            {
                "species": [
                    {
                        "element": "O",
                        "occu": 1
                    }
                ],
                "abc": [
                    0.0,
                    0.5,
                    0.0
                ],
                "xyz": [
                    0.0,
                    2.00547098,
                    0.0
                ],
                "label": "O",
                "properties": {}
            },
            {
                "species": [
                    {
                        "element": "O",
                        "occu": 1
                    }
                ],
                "abc": [
                    0.0,
                    0.0,
                    0.5
                ],
                "xyz": [
                    0.0,
                    0.0,
                    2.00547098
                ],
                "label": "O",
                "properties": {}
            },
            {
                "species": [
                    {
                        "element": "O",
                        "occu": 1
                    }
                ],
                "abc": [
                    0.5,
                    0.0,
                    0.0
                ],
                "xyz": [
                    2.00547098,
                    0.0,
                    0.0
                ],
                "label": "O",
                "properties": {}
            }
        ]
    },
    "spacegroup": {
        "source": "spglib",
        "symbol": "Pm-3m",
        "number": 221,
        "point_group": "m-3m",
        "crystal_system": "cubic",
        "hall": "-P 4 2 3"
    },
    "dielectric": {
        "epsilon_ionic": [
            [
                37.34623912,
                0.0,
                -0.0
            ],
            [
                0.0,
                37.34626042,
                0.0
            ],
            [
                -0.0,
                0.0,
                37.34628406
            ]
        ],
        "epsilon_ionic_avg": 37.3462612,
        "epsilon_ionic_eig": [
            37.34623912,
            37.34626042,
            37.34628406
        ],
        "epsilon_electronic": [
            [
                5.03352251,
                0.0,
                -0.0
            ],
            [
                -0.0,
                5.03352251,
                -0.0
            ],
            [
                0.0,
                -0.0,
                5.03352251
            ]
        ],
        "epsilon_electronic_avg": 5.03352251,
        "epsilon_electronic_eig": [
            5.03352251,
            5.03352251,
            5.03352251
        ]
    },
    "phonon": {
        "lowest_freq": -0.0421564682143846,
        "frequency": [
            -0.0421564682143846,
            -0.0421564682143846,
            -0.0421564682143846,
            5.149355785628387,
            5.149355785628387,
            5.149355785628387,
            6.519076099400402,
            6.519076099400402,
            6.519076099400402,
            8.530842469816202,
            8.530842469816202,
            8.530842469816202,
            16.655646875884713,
            16.655646875884713,
            16.655646875884713
        ]
    },
    "born_effective_charge": {
        "avg_abs_trace": 3.7556399999999996,
        "tensors": [
            [
                [
                    1.14078,
                    0.0,
                    0.0
                ],
                [
                    -0.0,
                    1.14078,
                    -0.0
                ],
                [
                    -0.0,
                    0.0,
                    1.14078
                ]
            ],
            [
                [
                    8.24832,
                    0.0,
                    0.0
                ],
                [
                    -0.0,
                    8.24832,
                    0.0
                ],
                [
                    0.0,
                    0.0,
                    8.24833
                ]
            ],
            [
                [
                    -1.59602,
                    0.0,
                    -0.0
                ],
                [
                    0.0,
                    -6.19705,
                    0.0
                ],
                [
                    0.0,
                    -0.0,
                    -1.59603
                ]
            ],
            [
                [
                    -1.59602,
                    0.0,
                    0.0
                ],
                [
                    -0.0,
                    -1.59602,
                    0.0
                ],
                [
                    0.0,
                    -0.0,
                    -6.19705
                ]
            ],
            [
                [
                    -6.19705,
                    -0.0,
                    0.0
                ],
                [
                    -0.0,
                    -1.59602,
                    -0.0
                ],
                [
                    0.0,
                    -0.0,
                    -1.59603
                ]
            ]
        ]
    },
    "band_gap": 2.4603,
    "is_direct": false,
    "formula": "KTaO3"
}