{
    "mp_id": "mp-3051",
    "nelements": 3,
    "nsites": 28,
    "elements": [
        "Ge",
        "Mg",
        "O"
    ],
    "structure": {
        "@module": "pymatgen.core.structure",
        "@class": "Structure",
        "charge": null,
        "lattice": {
            "matrix": [
                [
                    10.31475739,
                    0.0,
                    0.0
                ],
                [
                    0.0,
                    6.03770026,
                    0.0
                ],
                [
                    0.0,
                    0.0,
                    4.94766826
                ]
            ],
            "a": 10.31475739,
            "b": 6.03770026,
            "c": 4.94766826,
            "alpha": 90.0,
            "beta": 90.0,
            "gamma": 90.0,
            "volume": 308.1279814725636
        },
        "sites": [
            {
                "species": [
                    {
                        "element": "Mg",
                        "occu": 1
                    }
                ],
                "abc": [
                    0.0,
                    0.0,
                    0.0
                ],
                "xyz": [
                    0.0,
                    0.0,
                    0.0
                ],
                "label": "Mg",
                "properties": {}
            },
            {
                "species": [
                    {
                        "element": "Mg",
                        "occu": 1
                    }
                ],
                "abc": [
                    0.5,
                    0.0,
                    0.5
                ],
                "xyz": [
                    5.157378695,
                    0.0,
                    2.47383413
                ],
                "label": "Mg",
                "properties": {}
            },
            {
                "species": [
                    {
                        "element": "Mg",
                        "occu": 1
                    }
                ],
                "abc": [
                    0.0,
                    0.5,
                    0.0
                ],
                "xyz": [
                    0.0,
                    3.01885013,
                    0.0
                ],
                "label": "Mg",
                "properties": {}
            },
            {
                "species": [
                    {
                        "element": "Mg",
                        "occu": 1
                    }
                ],
                "abc": [
                    0.5,
                    0.5,
                    0.5
                ],
                "xyz": [
                    5.157378695,
                    3.01885013,
                    2.47383413
                ],
                "label": "Mg",
                "properties": {}
            },
            {
                "species": [
                    {
                        "element": "Mg",
                        "occu": 1
                    }
                ],
                "abc": [
                    0.77543179,
                    0.75,
                    0.49345544
                ],
                "xyz": [
                    7.998390786343428,
                    4.528275195,
                    2.441453818212335
                ],
                "label": "Mg",
                "properties": {}
            },
            {
                "species": [
                    {
                        "element": "Mg",
                        "occu": 1
                    }
                ],
                "abc": [
                    0.72456821,
                    0.25,
                    0.99345544
                ],
                "xyz": [
                    7.4737452986565724,
                    1.509425065,
                    4.915287948212335
                ],
                "label": "Mg",
                "properties": {}
            },
            {
                "species": [
                    {
                        "element": "Mg",
                        "occu": 1
                    }
                ],
                "abc": [
                    0.22456821,
                    0.25,
                    0.50654456
                ],
                "xyz": [
                    2.3163666036565718,
                    1.509425065,
                    2.506214441787666
                ],
                "label": "Mg",
                "properties": {}
            },
            {
                "species": [
                    {
                        "element": "Mg",
                        "occu": 1
                    }
                ],
                "abc": [
                    0.27543179,
                    0.75,
                    0.00654456
                ],
                "xyz": [
                    2.8410120913434285,
                    4.528275195,
                    0.0323803117876656
                ],
                "label": "Mg",
                "properties": {}
            },
            {
                "species": [
                    {
                        "element": "Ge",
                        "occu": 1
                    }
                ],
                "abc": [
                    0.09478614,
                    0.75,
                    0.56233004
                ],
                "xyz": [
                    0.9776960380345747,
                    4.528275195,
                    2.7822224905525306
                ],
                "label": "Ge",
                "properties": {}
            },
            {
                "species": [
                    {
                        "element": "Ge",
                        "occu": 1
                    }
                ],
                "abc": [
                    0.40521386,
                    0.25,
                    0.06233004
                ],
                "xyz": [
                    4.179682656965426,
                    1.509425065,
                    0.30838836055253044
                ],
                "label": "Ge",
                "properties": {}
            },
            {
                "species": [
                    {
                        "element": "Ge",
                        "occu": 1
                    }
                ],
                "abc": [
                    0.90521386,
                    0.25,
                    0.43766996
                ],
                "xyz": [
                    9.337061351965426,
                    1.509425065,
                    2.16544576944747
                ],
                "label": "Ge",
                "properties": {}
            },
            {
                "species": [
                    {
                        "element": "Ge",
                        "occu": 1
                    }
                ],
                "abc": [
                    0.59478614,
                    0.75,
                    0.93766996
                ],
                "xyz": [
                    6.135074733034575,
                    4.528275195,
                    4.63927989944747
                ],
                "label": "Ge",
                "properties": {}
            },
            {
                "species": [
                    {
                        "element": "O",
                        "occu": 1
                    }
                ],
                "abc": [
                    0.33469289,
                    0.48162019,
                    0.23634655
                ],
                "xyz": [
                    3.4522759605079574,
                    2.9078783463842495,
                    1.169364323795503
                ],
                "label": "O",
                "properties": {}
            },
            {
                "species": [
                    {
                        "element": "O",
                        "occu": 1
                    }
                ],
                "abc": [
                    0.16530711,
                    0.51837981,
                    0.73634655
                ],
                "xyz": [
                    1.705102734492043,
                    3.129821913615751,
                    3.6431984537955033
                ],
                "label": "O",
                "properties": {}
            },
            {
                "species": [
                    {
                        "element": "O",
                        "occu": 1
                    }
                ],
                "abc": [
                    0.66530711,
                    0.98162019,
                    0.76365345
                ],
                "xyz": [
                    6.862481429492043,
                    5.92672847638425,
                    3.7783039362044972
                ],
                "label": "O",
                "properties": {}
            },
            {
                "species": [
                    {
                        "element": "O",
                        "occu": 1
                    }
                ],
                "abc": [
                    0.83469289,
                    0.01837981,
                    0.26365345
                ],
                "xyz": [
                    8.609654655507958,
                    0.11097178361575061,
                    1.3044698062044973
                ],
                "label": "O",
                "properties": {}
            },
            {
                "species": [
                    {
                        "element": "O",
                        "occu": 1
                    }
                ],
                "abc": [
                    0.66530711,
                    0.51837981,
                    0.76365345
                ],
                "xyz": [
                    6.862481429492043,
                    3.129821913615751,
                    3.7783039362044972
                ],
                "label": "O",
                "properties": {}
            },
            {
                "species": [
                    {
                        "element": "O",
                        "occu": 1
                    }
                ],
                "abc": [
                    0.83469289,
                    0.48162019,
                    0.26365345
                ],
                "xyz": [
                    8.609654655507958,
                    2.9078783463842495,
                    1.3044698062044973
                ],
                "label": "O",
                "properties": {}
            },
            {
                "species": [
                    {
                        "element": "O",
                        "occu": 1
                    }
                ],
                "abc": [
                    0.33469289,
                    0.01837981,
                    0.23634655
                ],
                "xyz": [
                    3.4522759605079574,
                    0.11097178361575061,
                    1.169364323795503
                ],
                "label": "O",
                "properties": {}
            },
            {
                "species": [
                    {
                        "element": "O",
                        "occu": 1
                    }
                ],
                "abc": [
                    0.16530711,
                    0.98162019,
                    0.73634655
                ],
                "xyz": [
                    1.705102734492043,
                    5.92672847638425,
                    3.6431984537955033
                ],
                "label": "O",
                "properties": {}
            },
            {
                "species": [
                    {
                        "element": "O",
                        "occu": 1
                    }
                ],
                "abc": [
                    0.93836241,
                    0.75,
                    0.73086542
                ],
                "xyz": [
                    9.67898060304571,
                    4.528275195,
                    3.6160796408655695
                ],
                "label": "O",
                "properties": {}
            },
            {
                "species": [
                    {
                        "element": "O",
                        "occu": 1
                    }
                ],
                "abc": [
                    0.56163759,
                    0.25,
                    0.23086542
                ],
                "xyz": [
                    5.79315548195429,
                    1.509425065,
                    1.1422455108655691
                ],
                "label": "O",
                "properties": {}
            },
            {
                "species": [
                    {
                        "element": "O",
                        "occu": 1
                    }
                ],
                "abc": [
                    0.06163759,
                    0.25,
                    0.26913458
                ],
                "xyz": [
                    0.6357767869542901,
                    1.509425065,
                    1.331588619134431
                ],
                "label": "O",
                "properties": {}
            },
            {
                "species": [
                    {
                        "element": "O",
                        "occu": 1
                    }
                ],
                "abc": [
                    0.43836241,
                    0.75,
                    0.76913458
                ],
                "xyz": [
                    4.52160190804571,
                    4.528275195,
                    3.805422749134431
                ],
                "label": "O",
                "properties": {}
            },
            {
                "species": [
                    {
                        "element": "O",
                        "occu": 1
                    }
                ],
                "abc": [
                    0.09217471,
                    0.75,
                    0.20567752
                ],
                "xyz": [
                    0.950759771143607,
                    4.528275195,
                    1.0176241374995152
                ],
                "label": "O",
                "properties": {}
            },
            {
                "species": [
                    {
                        "element": "O",
                        "occu": 1
                    }
                ],
                "abc": [
                    0.40782529,
                    0.25,
                    0.70567752
                ],
                "xyz": [
                    4.206618923856394,
                    1.509425065,
                    3.491458267499515
                ],
                "label": "O",
                "properties": {}
            },
            {
                "species": [
                    {
                        "element": "O",
                        "occu": 1
                    }
                ],
                "abc": [
                    0.90782529,
                    0.25,
                    0.79432248
                ],
                "xyz": [
                    9.363997618856393,
                    1.509425065,
                    3.9300441225004854
                ],
                "label": "O",
                "properties": {}
            },
            {
                "species": [
                    {
                        "element": "O",
                        "occu": 1
                    }
                ],
                "abc": [
                    0.59217471,
                    0.75,
                    0.29432248
                ],
                "xyz": [
                    6.108138466143607,
                    4.528275195,
                    1.456209992500485
                ],
                "label": "O",
                "properties": {}
            }
        ]
    },
    "spacegroup": {
        "source": "spglib",
        "symbol": "Pnma",
        "number": 62,
        "point_group": "mmm",
        "crystal_system": "orthorhombic",
        "hall": "-P 2ac 2n"
    },
    "dielectric": {
        "epsilon_ionic": [
            [
                4.91553153,
                -2e-08,
                -1e-08
            ],
            [
                -2e-08,
                4.55717541,
                1e-08
            ],
            [
                -1e-08,
                1e-08,
                4.33849965
            ]
        ],
        "epsilon_ionic_avg": 4.60373553,
        "epsilon_ionic_eig": [
            4.91553153,
            4.55717541,
            4.338499649999999
        ],
        "epsilon_electronic": [
            [
                3.1013079,
                0.0,
                0.0
            ],
            [
                0.0,
                3.1743179,
                0.0
            ],
            [
                0.0,
                0.0,
                3.41929976
            ]
        ],
        "epsilon_electronic_avg": 3.231641853333333,
        "epsilon_electronic_eig": [
            3.1013079,
            3.1743179,
            3.41929976
        ]
    },
    "phonon": {
        "lowest_freq": -0.04652319377467428,
        "frequency": [
            -0.04652319377467428,
            -0.03777666167178998,
            -0.03342458427448669,
            2.2813802091895843,
            3.265412005547449,
            3.8301537703878576,
            4.115376009054377,
            4.122214058598922,
            4.592891724375216,
            4.603328120584491,
            4.673046219931469,
            4.776457268671429,
            5.016399125087183,
            5.742661028199637,
            5.913172622707085,
            6.604267734106789,
            6.661515338730415,
            6.661828429911996,
            6.768656293792965,
            7.547551534274179,
            7.606281144021679,
            7.69813311899838,
            7.9964112336193045,
            8.040155360736454,
            8.0686886885506,
            8.120077062029413,
            8.14877778631747,
            8.199173682549173,
            8.51618483663053,
            8.551074526646534,
            9.043265379062541,
            9.26569320176567,
            9.464067493821734,
            10.116066850654018,
            10.195295589116203,
            10.239254972335486,
            10.254896238756942,
            10.286873276836475,
            10.376837451099622,
            10.475951025197535,
            10.83565708791995,
            11.17074621661087,
            11.247868565219905,
            11.291597923344424,
            11.356987620265215,
            11.380365741323759,
            11.764458475350887,
            11.841316175791667,
            12.137070828027307,
            12.152747196519362,
            12.238558333432051,
            12.423189979023984,
            12.475226380792776,
            12.861120711958707,
            12.922754195175244,
            13.177689314799613,
            13.195365015385402,
            13.540642709594765,
            13.655099451499352,
            13.978551728298926,
            14.061305876159,
            14.318707499614336,
            14.413447569616393,
            14.483041561891735,
            14.700056940688178,
            14.735917609687814,
            15.174669384959104,
            15.738585998091743,
            19.821828141113144,
            20.032904438535247,
            20.616238525355246,
            20.619542057950625,
            20.620969860878475,
            21.218546307792785,
            21.288269327158616,
            22.143897496803525,
            22.165983583933038,
            22.371782766065063,
            22.465964232830316,
            22.7232331742301,
            23.32512558788181,
            23.375032501447848,
            23.474421620385584,
            23.561867653295558
        ]
    },
    "born_effective_charge": {
        "avg_abs_trace": 2.026015476190476,
        "tensors": [
            [
                [
                    1.66723,
                    -0.33976,
                    -0.12452
                ],
                [
                    -0.2795,
                    1.99216,
                    0.21328
                ],
                [
                    0.08059,
                    -0.15117,
                    2.31796
                ]
            ],
            [
                [
                    1.66723,
                    -0.33976,
                    0.12452
                ],
                [
                    -0.2795,
                    1.99216,
                    -0.21328
                ],
                [
                    -0.08059,
                    0.15117,
                    2.31796
                ]
            ],
            [
                [
                    1.66723,
                    0.33976,
                    -0.12452
                ],
                [
                    0.2795,
                    1.99216,
                    -0.21328
                ],
                [
                    0.08059,
                    0.15117,
                    2.31796
                ]
            ],
            [
                [
                    1.66723,
                    0.33976,
                    0.12452
                ],
                [
                    0.2795,
                    1.99216,
                    0.21328
                ],
                [
                    -0.08059,
                    -0.15117,
                    2.31796
                ]
            ],
            [
                [
                    2.35684,
                    0.0,
                    -0.1151
                ],
                [
                    1e-05,
                    2.06425,
                    1e-05
                ],
                [
                    0.08555,
                    -0.0,
                    1.96179
                ]
            ],
            [
                [
                    2.35684,
                    0.0,
                    0.1151
                ],
                [
                    -1e-05,
                    2.06425,
                    1e-05
                ],
                [
                    -0.08555,
                    -0.0,
                    1.96179
                ]
            ],
            [
                [
                    2.35684,
                    0.0,
                    -0.1151
                ],
                [
                    -1e-05,
                    2.06425,
                    -1e-05
                ],
                [
                    0.0856,
                    -0.0,
                    1.96181
                ]
            ],
            [
                [
                    2.35684,
                    0.0,
                    0.1151
                ],
                [
                    1e-05,
                    2.06425,
                    -1e-05
                ],
                [
                    -0.0856,
                    -0.0,
                    1.96181
                ]
            ],
            [
                [
                    2.72011,
                    0.0,
                    -0.00192
                ],
                [
                    -1e-05,
                    3.03322,
                    -0.00012
                ],
                [
                    -0.01722,
                    -0.0,
                    3.1597
                ]
            ],
            [
                [
                    2.72018,
                    0.0,
                    0.00189
                ],
                [
                    1e-05,
                    3.03322,
                    -0.00012
                ],
                [
                    0.01722,
                    -0.0,
                    3.1597
                ]
            ],
            [
                [
                    2.72018,
                    0.0,
                    -0.00189
                ],
                [
                    1e-05,
                    3.03322,
                    0.00012
                ],
                [
                    -0.01723,
                    -0.0,
                    3.1594
                ]
            ],
            [
                [
                    2.72011,
                    0.0,
                    0.00192
                ],
                [
                    -1e-05,
                    3.03322,
                    0.00012
                ],
                [
                    0.01723,
                    -0.0,
                    3.1594
                ]
            ],
            [
                [
                    -1.63697,
                    0.19888,
                    0.10959
                ],
                [
                    0.23694,
                    -1.99069,
                    -0.10389
                ],
                [
                    0.06246,
                    0.03301,
                    -1.65713
                ]
            ],
            [
                [
                    -1.63707,
                    0.199,
                    -0.10976
                ],
                [
                    0.2371,
                    -1.99089,
                    0.10407
                ],
                [
                    -0.06246,
                    -0.03301,
                    -1.65713
                ]
            ],
            [
                [
                    -1.63707,
                    -0.199,
                    0.10976
                ],
                [
                    -0.23694,
                    -1.99069,
                    0.10389
                ],
                [
                    0.06241,
                    -0.03317,
                    -1.65721
                ]
            ],
            [
                [
                    -1.63697,
                    -0.19888,
                    -0.10959
                ],
                [
                    -0.2371,
                    -1.99089,
                    -0.10407
                ],
                [
                    -0.06241,
                    0.03317,
                    -1.65721
                ]
            ],
            [
                [
                    -1.63707,
                    0.199,
                    0.10976
                ],
                [
                    0.2371,
                    -1.99089,
                    -0.10407
                ],
                [
                    0.06241,
                    0.03317,
                    -1.65721
                ]
            ],
            [
                [
                    -1.63697,
                    0.19888,
                    -0.10959
                ],
                [
                    0.23694,
                    -1.99069,
                    0.10389
                ],
                [
                    -0.06241,
                    -0.03317,
                    -1.65721
                ]
            ],
            [
                [
                    -1.63697,
                    -0.19888,
                    0.10959
                ],
                [
                    -0.2371,
                    -1.99089,
                    0.10407
                ],
                [
                    0.06246,
                    -0.03301,
                    -1.65713
                ]
            ],
            [
                [
                    -1.63707,
                    -0.199,
                    -0.10976
                ],
                [
                    -0.23694,
                    -1.99069,
                    -0.10389
                ],
                [
                    -0.06246,
                    0.03301,
                    -1.65713
                ]
            ],
            [
                [
                    -2.026,
                    0.0,
                    0.1378
                ],
                [
                    0.0,
                    -1.57118,
                    -6e-05
                ],
                [
                    -0.00486,
                    -0.0,
                    -1.69545
                ]
            ],
            [
                [
                    -2.02555,
                    0.0,
                    -0.13768
                ],
                [
                    -0.0,
                    -1.57118,
                    -6e-05
                ],
                [
                    0.00486,
                    -0.0,
                    -1.69545
                ]
            ],
            [
                [
                    -2.02555,
                    0.0,
                    0.13768
                ],
                [
                    -0.0,
                    -1.57118,
                    6e-05
                ],
                [
                    -0.00508,
                    -0.0,
                    -1.69558
                ]
            ],
            [
                [
                    -2.026,
                    0.0,
                    -0.1378
                ],
                [
                    0.0,
                    -1.57118,
                    6e-05
                ],
                [
                    0.00508,
                    -0.0,
                    -1.69558
                ]
            ],
            [
                [
                    -1.44441,
                    0.0,
                    -0.00099
                ],
                [
                    -4e-05,
                    -1.53688,
                    0.00011
                ],
                [
                    -0.00748,
                    -0.0,
                    -2.42949
                ]
            ],
            [
                [
                    -1.44439,
                    0.0,
                    0.00105
                ],
                [
                    4e-05,
                    -1.53688,
                    0.00011
                ],
                [
                    0.00748,
                    -0.0,
                    -2.42949
                ]
            ],
            [
                [
                    -1.44439,
                    0.0,
                    -0.00105
                ],
                [
                    4e-05,
                    -1.53688,
                    -0.00011
                ],
                [
                    -0.00758,
                    -0.0,
                    -2.42943
                ]
            ],
            [
                [
                    -1.44441,
                    0.0,
                    0.00099
                ],
                [
                    -4e-05,
                    -1.53688,
                    -0.00011
                ],
                [
                    0.00758,
                    -0.0,
                    -2.42943
                ]
            ]
        ]
    },
    "band_gap": 3.2890999999999995,
    "is_direct": true,
    "formula": "Mg2GeO4"
}