{
    "mp_id": "mp-3151",
    "nelements": 3,
    "nsites": 32,
    "elements": [
        "Li",
        "O",
        "Ta"
    ],
    "structure": {
        "@module": "pymatgen.core.structure",
        "@class": "Structure",
        "charge": null,
        "lattice": {
            "matrix": [
                [
                    4.24824937,
                    -4.2483532,
                    5.697e-05
                ],
                [
                    4.24824937,
                    4.2483532,
                    5.697e-05
                ],
                [
                    -4.24484047,
                    0.0,
                    8.31525367
                ]
            ],
            "a": 6.008005295012748,
            "b": 6.008005295012748,
            "c": 9.336065242499021,
            "alpha": 108.75298214506552,
            "beta": 108.75298214506552,
            "gamma": 90.0014003241533,
            "volume": 300.1505123354033
        },
        "sites": [
            {
                "species": [
                    {
                        "element": "Li",
                        "occu": 1
                    }
                ],
                "abc": [
                    0.19130241,
                    0.94380306,
                    0.63359088
                ],
                "xyz": [
                    2.1327188889641406,
                    3.19688854442958,
                    5.268533557157156
                ],
                "label": "Li",
                "properties": {}
            },
            {
                "species": [
                    {
                        "element": "Li",
                        "occu": 1
                    }
                ],
                "abc": [
                    0.80869759,
                    0.05619694,
                    0.36640912
                ],
                "xyz": [
                    2.1189393810358594,
                    -3.19688854442958,
                    3.0468340528428444
                ],
                "label": "Li",
                "properties": {}
            },
            {
                "species": [
                    {
                        "element": "Li",
                        "occu": 1
                    }
                ],
                "abc": [
                    0.94380306,
                    0.19130241,
                    0.13359088
                ],
                "xyz": [
                    4.25513912396414,
                    -3.19688854442958,
                    1.1109067221571556
                ],
                "label": "Li",
                "properties": {}
            },
            {
                "species": [
                    {
                        "element": "Li",
                        "occu": 1
                    }
                ],
                "abc": [
                    0.05619694,
                    0.80869759,
                    0.86640912
                ],
                "xyz": [
                    -0.003480853964140884,
                    3.19688854442958,
                    7.2044608878428456
                ],
                "label": "Li",
                "properties": {}
            },
            {
                "species": [
                    {
                        "element": "Li",
                        "occu": 1
                    }
                ],
                "abc": [
                    0.58190446,
                    0.31716585,
                    0.88355756
                ],
                "xyz": [
                    0.0689139897807518,
                    -1.1247031209570517,
                    7.347056463481806
                ],
                "label": "Li",
                "properties": {}
            },
            {
                "species": [
                    {
                        "element": "Li",
                        "occu": 1
                    }
                ],
                "abc": [
                    0.68283415,
                    0.41809554,
                    0.61644244
                ],
                "xyz": [
                    2.0603240452192493,
                    -1.1247031209570522,
                    5.125937981518194
                ],
                "label": "Li",
                "properties": {}
            },
            {
                "species": [
                    {
                        "element": "Li",
                        "occu": 1
                    }
                ],
                "abc": [
                    0.41809554,
                    0.68283415,
                    0.11644244
                ],
                "xyz": [
                    4.182744280219249,
                    1.1247031209570522,
                    0.9683111465181942
                ],
                "label": "Li",
                "properties": {}
            },
            {
                "species": [
                    {
                        "element": "Li",
                        "occu": 1
                    }
                ],
                "abc": [
                    0.31716585,
                    0.58190446,
                    0.38355756
                ],
                "xyz": [
                    2.1913342247807517,
                    1.1247031209570517,
                    3.1894296284818067
                ],
                "label": "Li",
                "properties": {}
            },
            {
                "species": [
                    {
                        "element": "Li",
                        "occu": 1
                    }
                ],
                "abc": [
                    0.31301183,
                    0.01832321,
                    0.37513662
                ],
                "xyz": [
                    -0.1848012314160865,
                    -1.251941341780584,
                    3.1193750323636245
                ],
                "label": "Li",
                "properties": {}
            },
            {
                "species": [
                    {
                        "element": "Li",
                        "occu": 1
                    }
                ],
                "abc": [
                    0.98167679,
                    0.68698817,
                    0.12486338
                ],
                "xyz": [
                    6.5588797364160865,
                    -1.2519413417805842,
                    1.038365742636376
                ],
                "label": "Li",
                "properties": {}
            },
            {
                "species": [
                    {
                        "element": "Li",
                        "occu": 1
                    }
                ],
                "abc": [
                    0.68698817,
                    0.98167679,
                    0.62486338
                ],
                "xyz": [
                    4.436459501416087,
                    1.2519413417805842,
                    5.195992577636376
                ],
                "label": "Li",
                "properties": {}
            },
            {
                "species": [
                    {
                        "element": "Li",
                        "occu": 1
                    }
                ],
                "abc": [
                    0.01832321,
                    0.31301183,
                    0.87513662
                ],
                "xyz": [
                    -2.3072214664160864,
                    1.251941341780584,
                    7.277001867363625
                ],
                "label": "Li",
                "properties": {}
            },
            {
                "species": [
                    {
                        "element": "Ta",
                        "occu": 1
                    }
                ],
                "abc": [
                    0.59140654,
                    0.81289442,
                    0.87493681
                ],
                "xyz": [
                    2.251853488829695,
                    0.9409587437592157,
                    7.275401523396285
                ],
                "label": "Ta",
                "properties": {}
            },
            {
                "species": [
                    {
                        "element": "Ta",
                        "occu": 1
                    }
                ],
                "abc": [
                    0.18710558,
                    0.40859346,
                    0.62506319
                ],
                "xyz": [
                    -0.12261545382969441,
                    0.9409587437592162,
                    5.197592921603716
                ],
                "label": "Ta",
                "properties": {}
            },
            {
                "species": [
                    {
                        "element": "Ta",
                        "occu": 1
                    }
                ],
                "abc": [
                    0.40859346,
                    0.18710558,
                    0.12506319
                ],
                "xyz": [
                    1.9998047811703057,
                    -0.9409587437592162,
                    1.0399660866037161
                ],
                "label": "Ta",
                "properties": {}
            },
            {
                "species": [
                    {
                        "element": "Ta",
                        "occu": 1
                    }
                ],
                "abc": [
                    0.81289442,
                    0.59140654,
                    0.37493681
                ],
                "xyz": [
                    4.3742737238296945,
                    -0.9409587437592157,
                    3.1177746883962842
                ],
                "label": "Ta",
                "properties": {}
            },
            {
                "species": [
                    {
                        "element": "O",
                        "occu": 1
                    }
                ],
                "abc": [
                    0.94677964,
                    0.66537398,
                    0.61387601
                ],
                "xyz": [
                    4.243024869698094,
                    -1.1955106361591121,
                    5.104626589469189
                ],
                "label": "O",
                "properties": {}
            },
            {
                "species": [
                    {
                        "element": "O",
                        "occu": 1
                    }
                ],
                "abc": [
                    0.66537398,
                    0.94677964,
                    0.11387601
                ],
                "xyz": [
                    6.365445104698094,
                    1.1955106361591121,
                    0.9469997544691882
                ],
                "label": "O",
                "properties": {}
            },
            {
                "species": [
                    {
                        "element": "O",
                        "occu": 1
                    }
                ],
                "abc": [
                    0.33462602,
                    0.05322036,
                    0.88612399
                ],
                "xyz": [
                    -2.1137868346980944,
                    -1.1955106361591123,
                    7.368367855530812
                ],
                "label": "O",
                "properties": {}
            },
            {
                "species": [
                    {
                        "element": "O",
                        "occu": 1
                    }
                ],
                "abc": [
                    0.05322036,
                    0.33462602,
                    0.38612399
                ],
                "xyz": [
                    0.008633400301905514,
                    1.1955106361591123,
                    3.210741020530812
                ],
                "label": "O",
                "properties": {}
            },
            {
                "species": [
                    {
                        "element": "O",
                        "occu": 1
                    }
                ],
                "abc": [
                    0.67719044,
                    0.42705261,
                    0.13596896
                ],
                "xyz": [
                    4.113933297417567,
                    -1.0626738505215558,
                    1.1306793023726418
                ],
                "label": "O",
                "properties": {}
            },
            {
                "species": [
                    {
                        "element": "O",
                        "occu": 1
                    }
                ],
                "abc": [
                    0.57294739,
                    0.32280956,
                    0.36403104
                ],
                "xyz": [
                    2.260145207582432,
                    -1.0626738505215558,
                    3.0270614726273584
                ],
                "label": "O",
                "properties": {}
            },
            {
                "species": [
                    {
                        "element": "O",
                        "occu": 1
                    }
                ],
                "abc": [
                    0.32280956,
                    0.57294739,
                    0.86403104
                ],
                "xyz": [
                    0.13772497258243233,
                    1.0626738505215558,
                    7.184688307627359
                ],
                "label": "O",
                "properties": {}
            },
            {
                "species": [
                    {
                        "element": "O",
                        "occu": 1
                    }
                ],
                "abc": [
                    0.42705261,
                    0.67719044,
                    0.63596896
                ],
                "xyz": [
                    1.991513062417567,
                    1.0626738505215558,
                    5.2883061373726425
                ],
                "label": "O",
                "properties": {}
            },
            {
                "species": [
                    {
                        "element": "O",
                        "occu": 1
                    }
                ],
                "abc": [
                    0.42028115,
                    0.19370805,
                    0.61796124
                ],
                "xyz": [
                    -0.014767648356578178,
                    -0.96256255441892,
                    5.138539447792475
                ],
                "label": "O",
                "properties": {}
            },
            {
                "species": [
                    {
                        "element": "O",
                        "occu": 1
                    }
                ],
                "abc": [
                    0.80629195,
                    0.57971885,
                    0.88203876
                ],
                "xyz": [
                    2.1440056833565784,
                    -0.9625625544189202,
                    7.3344549972075255
                ],
                "label": "O",
                "properties": {}
            },
            {
                "species": [
                    {
                        "element": "O",
                        "occu": 1
                    }
                ],
                "abc": [
                    0.57971885,
                    0.80629195,
                    0.38203876
                ],
                "xyz": [
                    4.266425918356578,
                    0.9625625544189202,
                    3.176828162207525
                ],
                "label": "O",
                "properties": {}
            },
            {
                "species": [
                    {
                        "element": "O",
                        "occu": 1
                    }
                ],
                "abc": [
                    0.19370805,
                    0.42028115,
                    0.11796124
                ],
                "xyz": [
                    2.1076525866434217,
                    0.96256255441892,
                    0.9809126127924749
                ],
                "label": "O",
                "properties": {}
            },
            {
                "species": [
                    {
                        "element": "O",
                        "occu": 1
                    }
                ],
                "abc": [
                    0.20247366,
                    0.95298606,
                    0.13235802
                ],
                "xyz": [
                    4.346842347725307,
                    3.18844175617968,
                    1.1006563380991818
                ],
                "label": "O",
                "properties": {}
            },
            {
                "species": [
                    {
                        "element": "O",
                        "occu": 1
                    }
                ],
                "abc": [
                    0.04701394,
                    0.79752634,
                    0.36764198
                ],
                "xyz": [
                    2.027236157274693,
                    3.1884417561796803,
                    3.057084436900818
                ],
                "label": "O",
                "properties": {}
            },
            {
                "species": [
                    {
                        "element": "O",
                        "occu": 1
                    }
                ],
                "abc": [
                    0.79752634,
                    0.04701394,
                    0.86764198
                ],
                "xyz": [
                    -0.09518407772530679,
                    -3.1884417561796803,
                    7.214711271900819
                ],
                "label": "O",
                "properties": {}
            },
            {
                "species": [
                    {
                        "element": "O",
                        "occu": 1
                    }
                ],
                "abc": [
                    0.95298606,
                    0.20247366,
                    0.63235802
                ],
                "xyz": [
                    2.2244221127253065,
                    -3.18844175617968,
                    5.258283173099182
                ],
                "label": "O",
                "properties": {}
            }
        ]
    },
    "spacegroup": {
        "source": "spglib",
        "symbol": "C2/c",
        "number": 15,
        "point_group": "2/m",
        "crystal_system": "monoclinic",
        "hall": "-C 2yc"
    },
    "dielectric": {
        "epsilon_ionic": [
            [
                12.61727056,
                6e-08,
                2.3365325
            ],
            [
                6e-08,
                12.04922226,
                0.0
            ],
            [
                2.3365325,
                0.0,
                12.1908945
            ]
        ],
        "epsilon_ionic_avg": 12.285795773333339,
        "epsilon_ionic_eig": [
            14.750320638055438,
            10.057844421944571,
            12.049222260000006
        ],
        "epsilon_electronic": [
            [
                3.73924946,
                0.0,
                0.22689177
            ],
            [
                0.0,
                3.71693209,
                0.0
            ],
            [
                0.22689376,
                0.0,
                3.73810727
            ]
        ],
        "epsilon_electronic_avg": 3.731429606666667,
        "epsilon_electronic_eig": [
            3.965571848727176,
            3.511784881272824,
            3.71693209
        ]
    },
    "phonon": {
        "lowest_freq": -0.03224377981895522,
        "frequency": [
            -0.03224377981895522,
            -0.028104422816077626,
            -0.013053880346754016,
            3.081424808441246,
            3.173512943672542,
            3.1847989441792373,
            3.262776880806122,
            3.6279569202933124,
            4.380472421828921,
            5.0766476071487245,
            5.130995663249709,
            5.7243500048383344,
            5.811433675754415,
            6.1161282328261715,
            6.399948964123974,
            6.438145617169842,
            6.526878552946282,
            6.618612375669145,
            6.639343320175422,
            6.911714074287287,
            7.250162488449021,
            7.370146077589745,
            7.445872889590393,
            7.449707090392804,
            7.513338739271747,
            7.522546709532042,
            7.665033255503199,
            7.702907565546946,
            7.916291092903038,
            8.034065100640936,
            8.045190624462085,
            8.174698356997974,
            8.516039722378393,
            8.525042541619674,
            8.543378742998641,
            8.737461047091589,
            8.785552436938602,
            8.808706251570564,
            8.888028918883482,
            9.167637059552733,
            9.26082281456274,
            9.323163345502113,
            9.360385165839935,
            9.619029249991124,
            9.785304268318503,
            9.869903718929251,
            9.93471958277649,
            9.994651146442076,
            10.277575233607976,
            10.323800254003332,
            10.604536801895541,
            10.780070383465615,
            10.922255910909646,
            11.248677317082473,
            11.26645510495141,
            11.35471050002804,
            11.421237941652436,
            11.525206349732972,
            11.55268621082328,
            11.934036816705829,
            12.035568187549975,
            12.20479077256855,
            12.264559178976343,
            12.584364631045922,
            12.585337077388168,
            13.012011484490435,
            13.229326791301165,
            13.365332067376556,
            13.39042431366015,
            13.465639431326004,
            13.706177142363725,
            13.753042981793826,
            14.087364033620188,
            14.778974263976218,
            14.827237084286265,
            15.138012778357082,
            15.341762579051595,
            15.674654687469072,
            15.773242733141194,
            16.012240666552753,
            16.062508166740642,
            17.378481346512398,
            17.669971873343954,
            17.723804046460543,
            17.86518136372945,
            18.28207652173159,
            19.158408067211067,
            19.270202560636395,
            19.706057650657804,
            19.998264738567237,
            20.261798268247414,
            20.267307372594406,
            21.990690270314367,
            22.404381429910337,
            22.51629449434859,
            22.780694902668642
        ]
    },
    "born_effective_charge": {
        "avg_abs_trace": 2.1350458333333333,
        "tensors": [
            [
                [
                    1.02599,
                    0.31919,
                    0.18149
                ],
                [
                    0.32882,
                    1.03105,
                    -0.07716
                ],
                [
                    0.14187,
                    -0.15317,
                    1.13432
                ]
            ],
            [
                [
                    1.02599,
                    0.31919,
                    0.18149
                ],
                [
                    0.32881,
                    1.03103,
                    -0.07716
                ],
                [
                    0.14187,
                    -0.15317,
                    1.13432
                ]
            ],
            [
                [
                    1.02599,
                    -0.31919,
                    0.18149
                ],
                [
                    -0.32881,
                    1.03103,
                    0.07716
                ],
                [
                    0.14187,
                    0.15317,
                    1.13432
                ]
            ],
            [
                [
                    1.02599,
                    -0.31919,
                    0.18149
                ],
                [
                    -0.32882,
                    1.03105,
                    0.07716
                ],
                [
                    0.14187,
                    0.15317,
                    1.13432
                ]
            ],
            [
                [
                    1.05362,
                    0.31836,
                    -0.10205
                ],
                [
                    0.32064,
                    1.0529,
                    -0.2454
                ],
                [
                    -0.16749,
                    -0.15409,
                    1.13691
                ]
            ],
            [
                [
                    1.05362,
                    -0.31836,
                    -0.10206
                ],
                [
                    -0.32064,
                    1.0529,
                    0.2454
                ],
                [
                    -0.16749,
                    0.15408,
                    1.13692
                ]
            ],
            [
                [
                    1.05362,
                    0.31836,
                    -0.10206
                ],
                [
                    0.32066,
                    1.05289,
                    -0.2454
                ],
                [
                    -0.16749,
                    -0.15408,
                    1.13692
                ]
            ],
            [
                [
                    1.05362,
                    -0.31836,
                    -0.10205
                ],
                [
                    -0.32066,
                    1.05289,
                    0.2454
                ],
                [
                    -0.16749,
                    0.15409,
                    1.13691
                ]
            ],
            [
                [
                    1.35146,
                    -0.00122,
                    -0.21882
                ],
                [
                    0.00482,
                    1.36352,
                    0.25362
                ],
                [
                    -0.11719,
                    0.10342,
                    1.09734
                ]
            ],
            [
                [
                    1.35145,
                    0.00122,
                    -0.21881
                ],
                [
                    -0.00482,
                    1.36352,
                    -0.25362
                ],
                [
                    -0.11718,
                    -0.10343,
                    1.09734
                ]
            ],
            [
                [
                    1.35145,
                    -0.00122,
                    -0.21881
                ],
                [
                    0.00482,
                    1.36353,
                    0.25362
                ],
                [
                    -0.11718,
                    0.10343,
                    1.09734
                ]
            ],
            [
                [
                    1.35146,
                    0.00122,
                    -0.21882
                ],
                [
                    -0.00482,
                    1.36353,
                    -0.25362
                ],
                [
                    -0.11719,
                    -0.10342,
                    1.09734
                ]
            ],
            [
                [
                    5.10426,
                    0.03578,
                    0.83366
                ],
                [
                    0.08701,
                    5.02747,
                    0.6205
                ],
                [
                    0.91414,
                    0.9462,
                    5.24169
                ]
            ],
            [
                [
                    5.10429,
                    -0.03591,
                    0.83363
                ],
                [
                    -0.08701,
                    5.02747,
                    -0.6205
                ],
                [
                    0.91415,
                    -0.94617,
                    5.24175
                ]
            ],
            [
                [
                    5.10429,
                    0.03591,
                    0.83363
                ],
                [
                    0.08714,
                    5.02744,
                    0.62038
                ],
                [
                    0.91415,
                    0.94617,
                    5.24175
                ]
            ],
            [
                [
                    5.10426,
                    -0.03578,
                    0.83366
                ],
                [
                    -0.08714,
                    5.02744,
                    -0.62038
                ],
                [
                    0.91414,
                    -0.9462,
                    5.24169
                ]
            ],
            [
                [
                    -1.30341,
                    0.08279,
                    -0.05636
                ],
                [
                    -0.02973,
                    -2.45254,
                    0.43807
                ],
                [
                    -0.01238,
                    0.65498,
                    -2.88843
                ]
            ],
            [
                [
                    -1.30341,
                    -0.08279,
                    -0.05636
                ],
                [
                    0.02956,
                    -2.45262,
                    -0.43843
                ],
                [
                    -0.01238,
                    -0.65498,
                    -2.88843
                ]
            ],
            [
                [
                    -1.30338,
                    -0.08279,
                    -0.0563
                ],
                [
                    0.02973,
                    -2.45254,
                    -0.43807
                ],
                [
                    -0.01235,
                    -0.65495,
                    -2.88843
                ]
            ],
            [
                [
                    -1.30338,
                    0.08279,
                    -0.0563
                ],
                [
                    -0.02956,
                    -2.45262,
                    0.43843
                ],
                [
                    -0.01235,
                    0.65495,
                    -2.88843
                ]
            ],
            [
                [
                    -2.46689,
                    -0.02523,
                    -0.63046
                ],
                [
                    -0.0658,
                    -1.3021,
                    0.03724
                ],
                [
                    -0.66073,
                    -0.05181,
                    -2.87914
                ]
            ],
            [
                [
                    -2.46678,
                    0.0252,
                    -0.63043
                ],
                [
                    0.0658,
                    -1.3021,
                    -0.03724
                ],
                [
                    -0.66074,
                    0.05178,
                    -2.87927
                ]
            ],
            [
                [
                    -2.46678,
                    -0.0252,
                    -0.63043
                ],
                [
                    -0.0655,
                    -1.30215,
                    0.03766
                ],
                [
                    -0.66074,
                    -0.05178,
                    -2.87927
                ]
            ],
            [
                [
                    -2.46689,
                    0.02523,
                    -0.63046
                ],
                [
                    0.0655,
                    -1.30215,
                    -0.03766
                ],
                [
                    -0.66073,
                    0.05181,
                    -2.87914
                ]
            ],
            [
                [
                    -1.52435,
                    -0.04225,
                    -0.04336
                ],
                [
                    0.04531,
                    -3.19624,
                    -0.13825
                ],
                [
                    -0.0108,
                    0.09013,
                    -1.42303
                ]
            ],
            [
                [
                    -1.52424,
                    0.04261,
                    -0.04341
                ],
                [
                    -0.04531,
                    -3.19624,
                    0.13825
                ],
                [
                    -0.01088,
                    -0.09011,
                    -1.42294
                ]
            ],
            [
                [
                    -1.52424,
                    -0.04261,
                    -0.04341
                ],
                [
                    0.04541,
                    -3.19693,
                    -0.13827
                ],
                [
                    -0.01088,
                    0.09011,
                    -1.42294
                ]
            ],
            [
                [
                    -1.52435,
                    0.04225,
                    -0.04336
                ],
                [
                    -0.04541,
                    -3.19693,
                    0.13827
                ],
                [
                    -0.0108,
                    -0.09013,
                    -1.42303
                ]
            ],
            [
                [
                    -3.24113,
                    -0.06618,
                    0.03584
                ],
                [
                    0.01012,
                    -1.5236,
                    0.07202
                ],
                [
                    -0.08746,
                    -0.12927,
                    -1.41962
                ]
            ],
            [
                [
                    -3.24051,
                    0.06622,
                    0.03593
                ],
                [
                    -0.01012,
                    -1.5236,
                    -0.07202
                ],
                [
                    -0.08735,
                    0.12922,
                    -1.41973
                ]
            ],
            [
                [
                    -3.24051,
                    -0.06622,
                    0.03593
                ],
                [
                    0.01128,
                    -1.52364,
                    0.07216
                ],
                [
                    -0.08735,
                    -0.12922,
                    -1.41973
                ]
            ],
            [
                [
                    -3.24113,
                    0.06618,
                    0.03584
                ],
                [
                    -0.01128,
                    -1.52364,
                    -0.07216
                ],
                [
                    -0.08746,
                    0.12927,
                    -1.41962
                ]
            ]
        ]
    },
    "band_gap": 4.7046,
    "is_direct": false,
    "formula": "Li3TaO4"
}