{
    "mp_id": "mp-30988",
    "nelements": 3,
    "nsites": 8,
    "elements": [
        "Bi",
        "K",
        "O"
    ],
    "structure": {
        "@module": "pymatgen.core.structure",
        "@class": "Structure",
        "charge": null,
        "lattice": {
            "matrix": [
                [
                    3.90558405,
                    -3.95849309,
                    -0.00084062
                ],
                [
                    3.90558405,
                    3.95849309,
                    -0.00084062
                ],
                [
                    -3.40420712,
                    0.0,
                    4.93543262
                ]
            ],
            "a": 5.560868189575629,
            "b": 5.560868189575629,
            "c": 5.995591819196731,
            "alpha": 113.50935948850629,
            "beta": 113.50935948850629,
            "gamma": 90.77095218663328,
            "volume": 152.58316637828307
        },
        "sites": [
            {
                "species": [
                    {
                        "element": "K",
                        "occu": 1
                    }
                ],
                "abc": [
                    0.36951176,
                    0.63048824,
                    0.75
                ],
                "xyz": [
                    1.3524287099999999,
                    1.0330735927325232,
                    3.7007338450000002
                ],
                "label": "K",
                "properties": {}
            },
            {
                "species": [
                    {
                        "element": "K",
                        "occu": 1
                    }
                ],
                "abc": [
                    0.63048824,
                    0.36951176,
                    0.25
                ],
                "xyz": [
                    3.0545322699999997,
                    -1.0330735927325232,
                    1.233017535
                ],
                "label": "K",
                "properties": {}
            },
            {
                "species": [
                    {
                        "element": "Bi",
                        "occu": 1
                    }
                ],
                "abc": [
                    0.10516647,
                    0.89483353,
                    0.25
                ],
                "xyz": [
                    3.0545322699999997,
                    3.1258916004106156,
                    1.233017535
                ],
                "label": "Bi",
                "properties": {}
            },
            {
                "species": [
                    {
                        "element": "Bi",
                        "occu": 1
                    }
                ],
                "abc": [
                    0.89483353,
                    0.10516647,
                    0.75
                ],
                "xyz": [
                    1.3524287099999999,
                    -3.1258916004106156,
                    3.7007338450000002
                ],
                "label": "Bi",
                "properties": {}
            },
            {
                "species": [
                    {
                        "element": "O",
                        "occu": 1
                    }
                ],
                "abc": [
                    0.26024058,
                    0.12415936,
                    0.71949793
                ],
                "xyz": [
                    -0.9480137016463046,
                    -0.5386765690487698,
                    3.5507104194669137
                ],
                "label": "O",
                "properties": {}
            },
            {
                "species": [
                    {
                        "element": "O",
                        "occu": 1
                    }
                ],
                "abc": [
                    0.73975942,
                    0.87584064,
                    0.28050207
                ],
                "xyz": [
                    5.354974681646304,
                    0.53867656904877,
                    1.3830409605330862
                ],
                "label": "O",
                "properties": {}
            },
            {
                "species": [
                    {
                        "element": "O",
                        "occu": 1
                    }
                ],
                "abc": [
                    0.87584064,
                    0.73975942,
                    0.78050207
                ],
                "xyz": [
                    3.652871121646304,
                    -0.53867656904877,
                    3.850757270533087
                ],
                "label": "O",
                "properties": {}
            },
            {
                "species": [
                    {
                        "element": "O",
                        "occu": 1
                    }
                ],
                "abc": [
                    0.12415936,
                    0.26024058,
                    0.21949793
                ],
                "xyz": [
                    0.7540898583536954,
                    0.5386765690487698,
                    1.082994109466914
                ],
                "label": "O",
                "properties": {}
            }
        ]
    },
    "spacegroup": {
        "source": "spglib",
        "symbol": "C2/c",
        "number": 15,
        "point_group": "2/m",
        "crystal_system": "monoclinic",
        "hall": "-C 2yc"
    },
    "dielectric": {
        "epsilon_ionic": [
            [
                6.21706227,
                -1.3e-07,
                -5.55502457
            ],
            [
                -1.3e-07,
                2.96601572,
                9e-08
            ],
            [
                -5.55502457,
                9e-08,
                13.29412696
            ]
        ],
        "epsilon_ionic_avg": 7.492401650000002,
        "epsilon_ionic_eig": [
            16.341906870725122,
            3.169282359274909,
            2.966015719999975
        ],
        "epsilon_electronic": [
            [
                4.35301448,
                0.0,
                -0.6846544
            ],
            [
                0.0,
                3.9374024,
                0.0
            ],
            [
                -0.68481389,
                0.0,
                4.7814085
            ]
        ],
        "epsilon_electronic_avg": 4.357275126666667,
        "epsilon_electronic_eig": [
            3.8497568210051174,
            5.284666158994883,
            3.9374024
        ]
    },
    "phonon": {
        "lowest_freq": -0.023088602068362774,
        "frequency": [
            -0.023088602068362774,
            -0.018905128589713476,
            -0.008600116072110062,
            1.971197686810017,
            3.378893600483922,
            3.4341257354238897,
            3.804155593033376,
            3.866931477220636,
            4.109182407831047,
            4.216038768996473,
            4.345529771353807,
            4.8429408628915525,
            5.31041424667382,
            5.584844972558253,
            6.605351784444516,
            7.271118640824975,
            8.291183374675892,
            9.736020909479773,
            10.606040219342207,
            11.486318524902606,
            13.022598651188215,
            13.826418323443816,
            14.940731385804995,
            15.527390938613227
        ]
    },
    "born_effective_charge": {
        "avg_abs_trace": 2.1585279166666664,
        "tensors": [
            [
                [
                    1.24159,
                    5e-05,
                    0.13781
                ],
                [
                    0.0,
                    1.23261,
                    0.0
                ],
                [
                    0.13398,
                    -3e-05,
                    1.26157
                ]
            ],
            [
                [
                    1.24159,
                    -5e-05,
                    0.13781
                ],
                [
                    0.0,
                    1.23248,
                    0.0
                ],
                [
                    0.13398,
                    3e-05,
                    1.26157
                ]
            ],
            [
                [
                    3.04727,
                    0.00025,
                    -1.34147
                ],
                [
                    0.0,
                    2.0987,
                    0.0
                ],
                [
                    -1.41425,
                    -7e-05,
                    4.0695
                ]
            ],
            [
                [
                    3.04727,
                    -0.00025,
                    -1.34147
                ],
                [
                    -0.0,
                    2.09868,
                    0.0
                ],
                [
                    -1.41425,
                    7e-05,
                    4.0695
                ]
            ],
            [
                [
                    -2.14429,
                    1.11154,
                    0.60177
                ],
                [
                    0.61135,
                    -1.66547,
                    -0.12622
                ],
                [
                    0.63987,
                    -0.72945,
                    -2.66534
                ]
            ],
            [
                [
                    -2.14457,
                    1.11272,
                    0.60189
                ],
                [
                    0.6115,
                    -1.66577,
                    -0.12585
                ],
                [
                    0.6404,
                    -0.7306,
                    -2.66573
                ]
            ],
            [
                [
                    -2.14457,
                    -1.11272,
                    0.60189
                ],
                [
                    -0.61135,
                    -1.66547,
                    0.12622
                ],
                [
                    0.6404,
                    0.7306,
                    -2.66573
                ]
            ],
            [
                [
                    -2.14429,
                    -1.11154,
                    0.60177
                ],
                [
                    -0.6115,
                    -1.66577,
                    0.12585
                ],
                [
                    0.63987,
                    0.72945,
                    -2.66534
                ]
            ]
        ]
    },
    "band_gap": 1.6771,
    "is_direct": true,
    "formula": "KBiO2"
}