{
    "mp_id": "mp-30299",
    "nelements": 3,
    "nsites": 16,
    "elements": [
        "As",
        "O",
        "Rb"
    ],
    "structure": {
        "@module": "pymatgen.core.structure",
        "@class": "Structure",
        "charge": null,
        "lattice": {
            "matrix": [
                [
                    7.37988988,
                    0.0,
                    0.0
                ],
                [
                    0.0,
                    7.74472782,
                    0.0
                ],
                [
                    0.0,
                    0.0,
                    5.50880353
                ]
            ],
            "a": 7.37988988,
            "b": 7.74472782,
            "c": 5.50880353,
            "alpha": 90.0,
            "beta": 90.0,
            "gamma": 90.0,
            "volume": 314.8569793984074
        },
        "sites": [
            {
                "species": [
                    {
                        "element": "Rb",
                        "occu": 1
                    }
                ],
                "abc": [
                    0.36131424,
                    0.40204242,
                    0.25
                ],
                "xyz": [
                    2.666459303275891,
                    3.1137091149941245,
                    1.3772008825
                ],
                "label": "Rb",
                "properties": {}
            },
            {
                "species": [
                    {
                        "element": "Rb",
                        "occu": 1
                    }
                ],
                "abc": [
                    0.63868576,
                    0.59795758,
                    0.75
                ],
                "xyz": [
                    4.713430576724109,
                    4.631018705005875,
                    4.131602647499999
                ],
                "label": "Rb",
                "properties": {}
            },
            {
                "species": [
                    {
                        "element": "Rb",
                        "occu": 1
                    }
                ],
                "abc": [
                    0.36131424,
                    0.09795758,
                    0.75
                ],
                "xyz": [
                    2.666459303275891,
                    0.7586547950058756,
                    4.131602647499999
                ],
                "label": "Rb",
                "properties": {}
            },
            {
                "species": [
                    {
                        "element": "Rb",
                        "occu": 1
                    }
                ],
                "abc": [
                    0.63868576,
                    0.90204242,
                    0.25
                ],
                "xyz": [
                    4.713430576724109,
                    6.986073024994124,
                    1.3772008825
                ],
                "label": "Rb",
                "properties": {}
            },
            {
                "species": [
                    {
                        "element": "As",
                        "occu": 1
                    }
                ],
                "abc": [
                    0.85448679,
                    0.36704628,
                    0.25
                ],
                "xyz": [
                    6.3060184141146856,
                    2.8426735359435096,
                    1.3772008825
                ],
                "label": "As",
                "properties": {}
            },
            {
                "species": [
                    {
                        "element": "As",
                        "occu": 1
                    }
                ],
                "abc": [
                    0.85448679,
                    0.13295372,
                    0.75
                ],
                "xyz": [
                    6.3060184141146856,
                    1.0296903740564902,
                    4.131602647499999
                ],
                "label": "As",
                "properties": {}
            },
            {
                "species": [
                    {
                        "element": "As",
                        "occu": 1
                    }
                ],
                "abc": [
                    0.14551321,
                    0.63295372,
                    0.75
                ],
                "xyz": [
                    1.0738714658853148,
                    4.902054284056491,
                    4.131602647499999
                ],
                "label": "As",
                "properties": {}
            },
            {
                "species": [
                    {
                        "element": "As",
                        "occu": 1
                    }
                ],
                "abc": [
                    0.14551321,
                    0.86704628,
                    0.25
                ],
                "xyz": [
                    1.0738714658853148,
                    6.7150374459435085,
                    1.3772008825
                ],
                "label": "As",
                "properties": {}
            },
            {
                "species": [
                    {
                        "element": "O",
                        "occu": 1
                    }
                ],
                "abc": [
                    0.26584201,
                    0.75,
                    0.5
                ],
                "xyz": [
                    1.961884759277859,
                    5.808545864999999,
                    2.754401765
                ],
                "label": "O",
                "properties": {}
            },
            {
                "species": [
                    {
                        "element": "O",
                        "occu": 1
                    }
                ],
                "abc": [
                    0.73415799,
                    0.25,
                    0.0
                ],
                "xyz": [
                    5.418005120722142,
                    1.936181955,
                    0.0
                ],
                "label": "O",
                "properties": {}
            },
            {
                "species": [
                    {
                        "element": "O",
                        "occu": 1
                    }
                ],
                "abc": [
                    0.73415799,
                    0.25,
                    0.5
                ],
                "xyz": [
                    5.418005120722142,
                    1.936181955,
                    2.754401765
                ],
                "label": "O",
                "properties": {}
            },
            {
                "species": [
                    {
                        "element": "O",
                        "occu": 1
                    }
                ],
                "abc": [
                    0.26584201,
                    0.75,
                    0.0
                ],
                "xyz": [
                    1.961884759277859,
                    5.808545864999999,
                    0.0
                ],
                "label": "O",
                "properties": {}
            },
            {
                "species": [
                    {
                        "element": "O",
                        "occu": 1
                    }
                ],
                "abc": [
                    0.72388041,
                    0.54948044,
                    0.25
                ],
                "xyz": [
                    5.342157712089251,
                    4.25557645021384,
                    1.3772008825
                ],
                "label": "O",
                "properties": {}
            },
            {
                "species": [
                    {
                        "element": "O",
                        "occu": 1
                    }
                ],
                "abc": [
                    0.27611959,
                    0.04948044,
                    0.25
                ],
                "xyz": [
                    2.0377321679107494,
                    0.38321254021384077,
                    1.3772008825
                ],
                "label": "O",
                "properties": {}
            },
            {
                "species": [
                    {
                        "element": "O",
                        "occu": 1
                    }
                ],
                "abc": [
                    0.72388041,
                    0.95051956,
                    0.75
                ],
                "xyz": [
                    5.342157712089251,
                    7.361515279786159,
                    4.131602647499999
                ],
                "label": "O",
                "properties": {}
            },
            {
                "species": [
                    {
                        "element": "O",
                        "occu": 1
                    }
                ],
                "abc": [
                    0.27611959,
                    0.45051956,
                    0.75
                ],
                "xyz": [
                    2.0377321679107494,
                    3.4891513697861587,
                    4.131602647499999
                ],
                "label": "O",
                "properties": {}
            }
        ]
    },
    "spacegroup": {
        "source": "spglib",
        "symbol": "Pbcm",
        "number": 57,
        "point_group": "mmm",
        "crystal_system": "orthorhombic",
        "hall": "-P 2c 2b"
    },
    "dielectric": {
        "epsilon_ionic": [
            [
                2.32080609,
                -1.4e-07,
                -4.2e-07
            ],
            [
                -1.4e-07,
                4.21984036,
                1.8e-07
            ],
            [
                -4.2e-07,
                1.8e-07,
                5.08384814
            ]
        ],
        "epsilon_ionic_avg": 3.8748315300000002,
        "epsilon_ionic_eig": [
            2.320806089999926,
            5.083848140000102,
            4.2198403599999725
        ],
        "epsilon_electronic": [
            [
                2.8348312,
                0.0,
                0.0
            ],
            [
                0.0,
                3.25164161,
                0.0
            ],
            [
                0.0,
                0.0,
                3.50230854
            ]
        ],
        "epsilon_electronic_avg": 3.19626045,
        "epsilon_electronic_eig": [
            2.8348312,
            3.25164161,
            3.50230854
        ]
    },
    "phonon": {
        "lowest_freq": -0.05590228650982098,
        "frequency": [
            -0.05590228650982098,
            -0.009371247537307389,
            -0.005220996972810257,
            0.8952932097138602,
            1.2657306926214387,
            1.268666353005701,
            1.965079701013501,
            2.0699927487932945,
            2.3765062697721295,
            2.4316558365231593,
            2.48737528078161,
            2.5024875489626734,
            2.6559635406758524,
            2.798580666708007,
            2.8555660838602694,
            2.9248779305843686,
            2.931068597367466,
            3.1507638697325517,
            3.4063387198705826,
            3.7558414765689854,
            3.7580032459340007,
            3.9580042873312657,
            4.062570207167132,
            4.097655943624404,
            4.171243369510692,
            4.206140167480308,
            7.405259664049554,
            7.432774348299445,
            7.608257062196676,
            7.744870711660858,
            8.094655562507842,
            8.123852747426971,
            8.651625700781109,
            8.672694369127207,
            9.333466946761197,
            9.492537949180505,
            13.604523973920426,
            13.645861997951064,
            14.566272884510742,
            14.586111714580866,
            15.995982612511543,
            16.202015171053144,
            18.96888419554685,
            19.40230462267585,
            24.132506684110446,
            24.241302004155337,
            24.417855076569083,
            24.756467562037702
        ]
    },
    "born_effective_charge": {
        "avg_abs_trace": 1.7893104166666667,
        "tensors": [
            [
                [
                    1.26289,
                    0.05322,
                    0.0
                ],
                [
                    -0.05292,
                    1.31065,
                    -0.0
                ],
                [
                    -0.00015,
                    3e-05,
                    1.24257
                ]
            ],
            [
                [
                    1.26313,
                    0.05391,
                    0.0
                ],
                [
                    -0.05297,
                    1.31054,
                    -0.0
                ],
                [
                    0.00015,
                    -3e-05,
                    1.24257
                ]
            ],
            [
                [
                    1.26289,
                    -0.05322,
                    0.0
                ],
                [
                    0.05297,
                    1.31054,
                    -0.0
                ],
                [
                    -0.00015,
                    -3e-05,
                    1.24257
                ]
            ],
            [
                [
                    1.26313,
                    -0.05391,
                    0.0
                ],
                [
                    0.05292,
                    1.31065,
                    -0.0
                ],
                [
                    0.00015,
                    3e-05,
                    1.24257
                ]
            ],
            [
                [
                    1.2197,
                    -0.05572,
                    -0.0
                ],
                [
                    0.23058,
                    2.54644,
                    -0.0
                ],
                [
                    0.00045,
                    0.00035,
                    3.15363
                ]
            ],
            [
                [
                    1.2197,
                    0.05572,
                    0.0
                ],
                [
                    -0.23079,
                    2.54631,
                    -0.0
                ],
                [
                    0.00045,
                    -0.00035,
                    3.15363
                ]
            ],
            [
                [
                    1.21968,
                    -0.05566,
                    0.0
                ],
                [
                    0.23079,
                    2.54631,
                    -0.0
                ],
                [
                    -0.00045,
                    -0.00035,
                    3.15363
                ]
            ],
            [
                [
                    1.21968,
                    0.05566,
                    0.0
                ],
                [
                    -0.23058,
                    2.54644,
                    -0.0
                ],
                [
                    -0.00045,
                    0.00035,
                    3.15363
                ]
            ],
            [
                [
                    -1.07131,
                    0.0,
                    0.0
                ],
                [
                    -0.00017,
                    -1.62226,
                    1.19481
                ],
                [
                    -6e-05,
                    1.45253,
                    -3.08071
                ]
            ],
            [
                [
                    -1.07209,
                    0.0,
                    -0.0
                ],
                [
                    0.00017,
                    -1.62226,
                    -1.19481
                ],
                [
                    6e-05,
                    -1.45253,
                    -3.08071
                ]
            ],
            [
                [
                    -1.07209,
                    0.0,
                    -0.0
                ],
                [
                    0.00017,
                    -1.62226,
                    1.19481
                ],
                [
                    6e-05,
                    1.45253,
                    -3.08071
                ]
            ],
            [
                [
                    -1.07131,
                    0.0,
                    0.0
                ],
                [
                    -0.00017,
                    -1.62226,
                    -1.19481
                ],
                [
                    -6e-05,
                    -1.45253,
                    -3.08071
                ]
            ],
            [
                [
                    -1.41106,
                    0.28519,
                    0.0
                ],
                [
                    0.8494,
                    -2.23445,
                    0.0
                ],
                [
                    -0.00049,
                    0.00015,
                    -1.31548
                ]
            ],
            [
                [
                    -1.41094,
                    -0.28526,
                    0.0
                ],
                [
                    -0.8494,
                    -2.23445,
                    -0.0
                ],
                [
                    0.00049,
                    0.00015,
                    -1.31548
                ]
            ],
            [
                [
                    -1.41106,
                    -0.28519,
                    0.0
                ],
                [
                    -0.84958,
                    -2.23496,
                    -0.0
                ],
                [
                    -0.00049,
                    -0.00015,
                    -1.31548
                ]
            ],
            [
                [
                    -1.41094,
                    0.28526,
                    -0.0
                ],
                [
                    0.84958,
                    -2.23496,
                    0.0
                ],
                [
                    0.00049,
                    -0.00015,
                    -1.31548
                ]
            ]
        ]
    },
    "band_gap": 3.8232000000000004,
    "is_direct": false,
    "formula": "RbAsO2"
}