{
    "mp_id": "mp-34022",
    "nelements": 3,
    "nsites": 14,
    "elements": [
        "Mg",
        "O",
        "Sn"
    ],
    "structure": {
        "@module": "pymatgen.core.structure",
        "@class": "Structure",
        "charge": null,
        "lattice": {
            "matrix": [
                [
                    -3.0268467,
                    3.11560158,
                    4.31005623
                ],
                [
                    3.0268467,
                    -3.11560158,
                    4.31005623
                ],
                [
                    3.0268467,
                    3.11560158,
                    -4.31005623
                ]
            ],
            "a": 6.119261299892431,
            "b": 6.119261299892431,
            "c": 6.119261299892431,
            "alpha": 120.70764186830004,
            "beta": 118.78598543348464,
            "gamma": 90.4470885688874,
            "volume": 162.58305083901274
        },
        "sites": [
            {
                "species": [
                    {
                        "element": "Mg",
                        "occu": 1
                    }
                ],
                "abc": [
                    0.1121149,
                    0.8621149,
                    0.25
                ],
                "xyz": [
                    3.0268467,
                    -1.55780079,
                    3.1214711614416544
                ],
                "label": "Mg",
                "properties": {}
            },
            {
                "species": [
                    {
                        "element": "Mg",
                        "occu": 1
                    }
                ],
                "abc": [
                    0.8878851,
                    0.1378851,
                    0.75
                ],
                "xyz": [
                    0.0,
                    4.67340237,
                    1.1885850685583463
                ],
                "label": "Mg",
                "properties": {}
            },
            {
                "species": [
                    {
                        "element": "Mg",
                        "occu": 1
                    }
                ],
                "abc": [
                    0.5,
                    0.0,
                    0.0
                ],
                "xyz": [
                    -1.51342335,
                    1.55780079,
                    2.155028115
                ],
                "label": "Mg",
                "properties": {}
            },
            {
                "species": [
                    {
                        "element": "Mg",
                        "occu": 1
                    }
                ],
                "abc": [
                    0.5,
                    0.5,
                    0.5
                ],
                "xyz": [
                    1.51342335,
                    1.55780079,
                    2.155028115
                ],
                "label": "Mg",
                "properties": {}
            },
            {
                "species": [
                    {
                        "element": "Sn",
                        "occu": 1
                    }
                ],
                "abc": [
                    0.0,
                    0.5,
                    0.5
                ],
                "xyz": [
                    3.0268467,
                    0.0,
                    0.0
                ],
                "label": "Sn",
                "properties": {}
            },
            {
                "species": [
                    {
                        "element": "Sn",
                        "occu": 1
                    }
                ],
                "abc": [
                    0.5,
                    0.5,
                    0.0
                ],
                "xyz": [
                    0.0,
                    0.0,
                    4.31005623
                ],
                "label": "Sn",
                "properties": {}
            },
            {
                "species": [
                    {
                        "element": "O",
                        "occu": 1
                    }
                ],
                "abc": [
                    0.74598924,
                    0.26115327,
                    0.01516403
                ],
                "xyz": [
                    -1.421624961671598,
                    1.55780079,
                    4.27548302774993
                ],
                "label": "O",
                "properties": {}
            },
            {
                "species": [
                    {
                        "element": "O",
                        "occu": 1
                    }
                ],
                "abc": [
                    0.74493864,
                    0.26354582,
                    0.48139281
                ],
                "xyz": [
                    -3.0268467066107974e-08,
                    2.9996564300292956,
                    2.271794649863479
                ],
                "label": "O",
                "properties": {}
            },
            {
                "species": [
                    {
                        "element": "O",
                        "occu": 1
                    }
                ],
                "abc": [
                    0.74598924,
                    0.73082521,
                    0.48483597
                ],
                "xyz": [
                    1.421624961671598,
                    1.55780079,
                    4.27548302774993
                ],
                "label": "O",
                "properties": {}
            },
            {
                "species": [
                    {
                        "element": "O",
                        "occu": 1
                    }
                ],
                "abc": [
                    0.28215301,
                    0.26354582,
                    0.01860719
                ],
                "xyz": [
                    2.0816681711721685e-17,
                    0.11594518112672032,
                    2.271794606762917
                ],
                "label": "O",
                "properties": {}
            },
            {
                "species": [
                    {
                        "element": "O",
                        "occu": 1
                    }
                ],
                "abc": [
                    0.71784699,
                    0.73645418,
                    0.98139281
                ],
                "xyz": [
                    3.0268467,
                    2.999656398873279,
                    2.0382616232370827
                ],
                "label": "O",
                "properties": {}
            },
            {
                "species": [
                    {
                        "element": "O",
                        "occu": 1
                    }
                ],
                "abc": [
                    0.25506136,
                    0.73645418,
                    0.51860719
                ],
                "xyz": [
                    3.026846730268467,
                    0.11594514997070449,
                    2.038261580136521
                ],
                "label": "O",
                "properties": {}
            },
            {
                "species": [
                    {
                        "element": "O",
                        "occu": 1
                    }
                ],
                "abc": [
                    0.25401076,
                    0.26917479,
                    0.51516403
                ],
                "xyz": [
                    1.6052217383284022,
                    1.55780079,
                    0.03457320225006999
                ],
                "label": "O",
                "properties": {}
            },
            {
                "species": [
                    {
                        "element": "O",
                        "occu": 1
                    }
                ],
                "abc": [
                    0.25401076,
                    0.73884673,
                    0.98483597
                ],
                "xyz": [
                    4.448471661671598,
                    1.55780079,
                    0.03457320225006999
                ],
                "label": "O",
                "properties": {}
            }
        ]
    },
    "spacegroup": {
        "source": "spglib",
        "symbol": "Imma",
        "number": 74,
        "point_group": "mmm",
        "crystal_system": "orthorhombic",
        "hall": "-I 2b 2"
    },
    "dielectric": {
        "epsilon_ionic": [
            [
                5.05039168,
                0.0,
                0.0
            ],
            [
                0.0,
                5.36068666,
                -0.0
            ],
            [
                0.0,
                -0.0,
                4.37352524
            ]
        ],
        "epsilon_ionic_avg": 4.928201193333333,
        "epsilon_ionic_eig": [
            5.05039168,
            5.36068666,
            4.37352524
        ],
        "epsilon_electronic": [
            [
                3.24398599,
                0.0,
                0.0
            ],
            [
                0.0,
                3.58067118,
                0.0
            ],
            [
                0.0,
                0.0,
                3.44730053
            ]
        ],
        "epsilon_electronic_avg": 3.4239859,
        "epsilon_electronic_eig": [
            3.24398599,
            3.58067118,
            3.44730053
        ]
    },
    "phonon": {
        "lowest_freq": -0.031094867342855437,
        "frequency": [
            -0.031094867342855437,
            -0.026003334863514162,
            -0.020501256236046456,
            3.512268391292156,
            3.696286572789243,
            4.697362107402329,
            6.0699290837401705,
            6.479256179241908,
            7.339036482028443,
            7.503414827643825,
            7.710199876773662,
            7.8178975157442965,
            8.025264974425538,
            8.589346945549597,
            8.658606852271292,
            10.013359619526383,
            10.917827977203066,
            11.48157123599764,
            11.598368384167353,
            11.677221293398054,
            11.758290503684464,
            11.75882637925286,
            11.95523962552257,
            11.967762171198043,
            12.014383267017477,
            12.28696318915284,
            12.598217194218623,
            13.71610802479678,
            13.763906413086858,
            13.894781082734939,
            14.312441615148755,
            14.655551988012471,
            14.943044748027537,
            15.113961642588857,
            15.604384569211888,
            15.90923498423081,
            16.009608594037616,
            16.816379120227282,
            17.339239738422112,
            18.246058747767094,
            18.632172941230706,
            19.38890033136232
        ]
    },
    "born_effective_charge": {
        "avg_abs_trace": 2.176519761904762,
        "tensors": [
            [
                [
                    2.28235,
                    0.0,
                    2e-05
                ],
                [
                    0.0,
                    1.88546,
                    2e-05
                ],
                [
                    -0.0,
                    -0.0,
                    2.13136
                ]
            ],
            [
                [
                    2.28235,
                    0.0,
                    -2e-05
                ],
                [
                    0.0,
                    1.88546,
                    -2e-05
                ],
                [
                    -0.0,
                    -0.0,
                    2.13139
                ]
            ],
            [
                [
                    1.98525,
                    0.0,
                    0.44879
                ],
                [
                    -0.0,
                    1.90195,
                    -0.0
                ],
                [
                    0.57731,
                    -0.0,
                    1.90956
                ]
            ],
            [
                [
                    1.98525,
                    0.0,
                    -0.44879
                ],
                [
                    -0.0,
                    1.90195,
                    -0.0
                ],
                [
                    -0.57731,
                    -0.0,
                    1.90956
                ]
            ],
            [
                [
                    2.88036,
                    0.0,
                    0.0
                ],
                [
                    -0.0,
                    4.39355,
                    0.15079
                ],
                [
                    -0.0,
                    0.14599,
                    3.48359
                ]
            ],
            [
                [
                    2.88036,
                    0.0,
                    0.0
                ],
                [
                    -0.0,
                    4.39355,
                    -0.15079
                ],
                [
                    -0.0,
                    -0.14599,
                    3.48359
                ]
            ],
            [
                [
                    -1.97557,
                    0.0,
                    0.09877
                ],
                [
                    -3e-05,
                    -2.22562,
                    -0.0
                ],
                [
                    0.08111,
                    -0.0,
                    -1.70298
                ]
            ],
            [
                [
                    -1.59842,
                    -2e-05,
                    -6e-05
                ],
                [
                    0.0,
                    -1.86485,
                    0.06299
                ],
                [
                    0.0,
                    0.07511,
                    -2.05922
                ]
            ],
            [
                [
                    -1.97556,
                    -0.0,
                    -0.09873
                ],
                [
                    3e-05,
                    -2.22562,
                    -0.0
                ],
                [
                    -0.08111,
                    0.0,
                    -1.70298
                ]
            ],
            [
                [
                    -1.59842,
                    2e-05,
                    -6e-05
                ],
                [
                    -0.0,
                    -1.86487,
                    -0.06303
                ],
                [
                    -0.0,
                    -0.07511,
                    -2.05922
                ]
            ],
            [
                [
                    -1.59842,
                    -2e-05,
                    6e-05
                ],
                [
                    0.0,
                    -1.86485,
                    -0.06299
                ],
                [
                    -0.0,
                    -0.07526,
                    -2.05933
                ]
            ],
            [
                [
                    -1.59842,
                    2e-05,
                    6e-05
                ],
                [
                    0.0,
                    -1.86487,
                    0.06303
                ],
                [
                    0.0,
                    0.07526,
                    -2.05933
                ]
            ],
            [
                [
                    -1.97557,
                    -0.0,
                    -0.09877
                ],
                [
                    -3e-05,
                    -2.22562,
                    0.0
                ],
                [
                    -0.08114,
                    0.0,
                    -1.70301
                ]
            ],
            [
                [
                    -1.97556,
                    -0.0,
                    0.09873
                ],
                [
                    3e-05,
                    -2.22562,
                    0.0
                ],
                [
                    0.08114,
                    -0.0,
                    -1.70301
                ]
            ]
        ]
    },
    "band_gap": 2.6448000000000005,
    "is_direct": true,
    "formula": "Mg2SnO4"
}