{
    "mp_id": "mp-3575",
    "nelements": 3,
    "nsites": 22,
    "elements": [
        "B",
        "Ca",
        "O"
    ],
    "structure": {
        "@module": "pymatgen.core.structure",
        "@class": "Structure",
        "charge": null,
        "lattice": {
            "matrix": [
                [
                    4.29846158,
                    2.48171784,
                    3.88550478
                ],
                [
                    -4.29846158,
                    2.48171784,
                    3.88550478
                ],
                [
                    0.0,
                    -4.96343568,
                    3.88550478
                ]
            ],
            "a": 6.303399304146391,
            "b": 6.303399304146391,
            "c": 6.303399173850559,
            "alpha": 85.98890163187872,
            "beta": 85.98890163187872,
            "gamma": 85.9889040894336,
            "volume": 248.69333709213782
        },
        "sites": [
            {
                "species": [
                    {
                        "element": "Ca",
                        "occu": 1
                    }
                ],
                "abc": [
                    0.60888563,
                    0.25,
                    0.89111437
                ],
                "xyz": [
                    1.542656092169095,
                    -2.291477068528083,
                    6.799633365
                ],
                "label": "Ca",
                "properties": {}
            },
            {
                "species": [
                    {
                        "element": "Ca",
                        "occu": 1
                    }
                ],
                "abc": [
                    0.25,
                    0.89111437,
                    0.60888563
                ],
                "xyz": [
                    -2.7558054878309046,
                    -0.1902407714719172,
                    6.799633365000001
                ],
                "label": "Ca",
                "properties": {}
            },
            {
                "species": [
                    {
                        "element": "Ca",
                        "occu": 1
                    }
                ],
                "abc": [
                    0.89111437,
                    0.60888563,
                    0.25
                ],
                "xyz": [
                    1.2131493956618096,
                    2.48171784,
                    6.799633365000001
                ],
                "label": "Ca",
                "properties": {}
            },
            {
                "species": [
                    {
                        "element": "Ca",
                        "occu": 1
                    }
                ],
                "abc": [
                    0.39111437,
                    0.75,
                    0.10888563
                ],
                "xyz": [
                    -1.5426560921690953,
                    2.2914770685280823,
                    4.856880975
                ],
                "label": "Ca",
                "properties": {}
            },
            {
                "species": [
                    {
                        "element": "Ca",
                        "occu": 1
                    }
                ],
                "abc": [
                    0.75,
                    0.10888563,
                    0.39111437
                ],
                "xyz": [
                    2.755805487830904,
                    0.19024077147191787,
                    4.856880975000001
                ],
                "label": "Ca",
                "properties": {}
            },
            {
                "species": [
                    {
                        "element": "Ca",
                        "occu": 1
                    }
                ],
                "abc": [
                    0.10888563,
                    0.39111437,
                    0.75
                ],
                "xyz": [
                    -1.2131493956618091,
                    -2.48171784,
                    4.856880975
                ],
                "label": "Ca",
                "properties": {}
            },
            {
                "species": [
                    {
                        "element": "B",
                        "occu": 1
                    }
                ],
                "abc": [
                    0.88293471,
                    0.88293471,
                    0.88293471
                ],
                "xyz": [
                    0.0,
                    0.0,
                    10.291941108398742
                ],
                "label": "B",
                "properties": {}
            },
            {
                "species": [
                    {
                        "element": "B",
                        "occu": 1
                    }
                ],
                "abc": [
                    0.11706529,
                    0.11706529,
                    0.11706529
                ],
                "xyz": [
                    0.0,
                    0.0,
                    1.3645732316012587
                ],
                "label": "B",
                "properties": {}
            },
            {
                "species": [
                    {
                        "element": "B",
                        "occu": 1
                    }
                ],
                "abc": [
                    0.38293471,
                    0.38293471,
                    0.38293471
                ],
                "xyz": [
                    0.0,
                    0.0,
                    4.4636839383987414
                ],
                "label": "B",
                "properties": {}
            },
            {
                "species": [
                    {
                        "element": "B",
                        "occu": 1
                    }
                ],
                "abc": [
                    0.61706529,
                    0.61706529,
                    0.61706529
                ],
                "xyz": [
                    0.0,
                    0.0,
                    7.192830401601258
                ],
                "label": "B",
                "properties": {}
            },
            {
                "species": [
                    {
                        "element": "O",
                        "occu": 1
                    }
                ],
                "abc": [
                    0.39855789,
                    0.21753457,
                    0.53961439
                ],
                "xyz": [
                    0.7781217861040455,
                    -1.1493736676959485,
                    4.490504489953743
                ],
                "label": "O",
                "properties": {}
            },
            {
                "species": [
                    {
                        "element": "O",
                        "occu": 1
                    }
                ],
                "abc": [
                    0.21753457,
                    0.53961439,
                    0.39855789
                ],
                "xyz": [
                    -1.3844477319633155,
                    -0.099186370202069,
                    4.490504489953743
                ],
                "label": "O",
                "properties": {}
            },
            {
                "species": [
                    {
                        "element": "O",
                        "occu": 1
                    }
                ],
                "abc": [
                    0.53961439,
                    0.39855789,
                    0.21753457
                ],
                "xyz": [
                    0.60632594585927,
                    1.2485600378980175,
                    4.490504489953743
                ],
                "label": "O",
                "properties": {}
            },
            {
                "species": [
                    {
                        "element": "O",
                        "occu": 1
                    }
                ],
                "abc": [
                    0.28246543,
                    0.10144211,
                    0.96038561
                ],
                "xyz": [
                    0.7781217861040457,
                    -3.814062012304051,
                    5.223257460046257
                ],
                "label": "O",
                "properties": {}
            },
            {
                "species": [
                    {
                        "element": "O",
                        "occu": 1
                    }
                ],
                "abc": [
                    0.96038561,
                    0.28246543,
                    0.10144211
                ],
                "xyz": [
                    2.914013848036684,
                    2.5809042102020685,
                    5.223257460046257
                ],
                "label": "O",
                "properties": {}
            },
            {
                "species": [
                    {
                        "element": "O",
                        "occu": 1
                    }
                ],
                "abc": [
                    0.10144211,
                    0.96038561,
                    0.28246543
                ],
                "xyz": [
                    -3.69213563414073,
                    1.2331578021019824,
                    5.223257460046257
                ],
                "label": "O",
                "properties": {}
            },
            {
                "species": [
                    {
                        "element": "O",
                        "occu": 1
                    }
                ],
                "abc": [
                    0.78246543,
                    0.46038561,
                    0.60144211
                ],
                "xyz": [
                    1.3844477319633155,
                    0.09918637020206855,
                    7.166009850046258
                ],
                "label": "O",
                "properties": {}
            },
            {
                "species": [
                    {
                        "element": "O",
                        "occu": 1
                    }
                ],
                "abc": [
                    0.60144211,
                    0.78246543,
                    0.46038561
                ],
                "xyz": [
                    -0.7781217861040455,
                    1.149373667695949,
                    7.166009850046257
                ],
                "label": "O",
                "properties": {}
            },
            {
                "species": [
                    {
                        "element": "O",
                        "occu": 1
                    }
                ],
                "abc": [
                    0.46038561,
                    0.60144211,
                    0.78246543
                ],
                "xyz": [
                    -0.60632594585927,
                    -1.2485600378980175,
                    7.166009850046257
                ],
                "label": "O",
                "properties": {}
            },
            {
                "species": [
                    {
                        "element": "O",
                        "occu": 1
                    }
                ],
                "abc": [
                    0.03961439,
                    0.71753457,
                    0.89855789
                ],
                "xyz": [
                    -2.914013848036684,
                    -2.5809042102020685,
                    6.433256879953744
                ],
                "label": "O",
                "properties": {}
            },
            {
                "species": [
                    {
                        "element": "O",
                        "occu": 1
                    }
                ],
                "abc": [
                    0.89855789,
                    0.03961439,
                    0.71753457
                ],
                "xyz": [
                    3.6921356341407296,
                    -1.2331578021019824,
                    6.433256879953744
                ],
                "label": "O",
                "properties": {}
            },
            {
                "species": [
                    {
                        "element": "O",
                        "occu": 1
                    }
                ],
                "abc": [
                    0.71753457,
                    0.89855789,
                    0.03961439
                ],
                "xyz": [
                    -0.7781217861040455,
                    3.814062012304051,
                    6.433256879953743
                ],
                "label": "O",
                "properties": {}
            }
        ]
    },
    "spacegroup": {
        "source": "spglib",
        "symbol": "R-3c",
        "number": 167,
        "point_group": "-3m",
        "crystal_system": "trigonal",
        "hall": "-R 3 2\"c"
    },
    "dielectric": {
        "epsilon_ionic": [
            [
                6.54802907,
                -3e-08,
                0.0
            ],
            [
                -3e-08,
                6.54803074,
                -1.023e-05
            ],
            [
                0.0,
                -1.023e-05,
                10.16873423
            ]
        ],
        "epsilon_ionic_avg": 7.754931346666669,
        "epsilon_ionic_eig": [
            6.548029069461245,
            6.548030740509855,
            10.168734230028903
        ],
        "epsilon_electronic": [
            [
                3.41050424,
                0.0,
                0.0
            ],
            [
                0.0,
                3.41050371,
                0.0
            ],
            [
                -0.0,
                -0.0,
                2.94853839
            ]
        ],
        "epsilon_electronic_avg": 3.2565154466666666,
        "epsilon_electronic_eig": [
            3.41050424,
            3.41050371,
            2.94853839
        ]
    },
    "phonon": {
        "lowest_freq": -0.05127141540451878,
        "frequency": [
            -0.05127141540451878,
            -0.051271411352746106,
            -0.03393010614483609,
            2.214416442278413,
            2.2144164588335733,
            3.9659502087179983,
            3.9659502148804595,
            4.562785593434256,
            4.617997047307642,
            4.617997150508282,
            5.707975255730121,
            5.7261615158714125,
            6.078512069257135,
            6.302508784810805,
            6.302508823589034,
            6.66031021859399,
            6.660310236941494,
            6.691660260816926,
            7.263874826174709,
            7.2638748766436665,
            7.3827025551503915,
            7.708943301813924,
            7.721886704943473,
            7.767320647611255,
            7.912127614879474,
            7.912128016440444,
            8.118495109309512,
            8.118495651183611,
            8.200497001711357,
            8.200497240136054,
            8.30665960943578,
            8.851558584057925,
            8.91058503156742,
            9.118479760832626,
            9.1184798814449,
            9.174426301728543,
            9.347718743450262,
            9.34771880881384,
            9.946763627490396,
            9.946763713488261,
            10.042725068200637,
            10.042725165544786,
            17.281920085781856,
            17.28192015649163,
            17.354912090669476,
            17.354912231494236,
            17.485761559347363,
            17.485761559347363,
            17.857902467174608,
            17.857902467174608,
            19.78971351080564,
            20.841439743425465,
            21.474765683615335,
            22.073276876843124,
            26.486822663561423,
            26.806263250766357,
            27.22186211337805,
            27.237686995837198,
            36.35801244714025,
            36.35801436292252,
            36.42197034463535,
            36.421971250517615,
            37.52248554518996,
            37.52248648963748,
            37.52331069016016,
            37.52331267671297
        ]
    },
    "born_effective_charge": {
        "avg_abs_trace": 2.046243787878788,
        "tensors": [
            [
                [
                    2.56526,
                    -0.03389,
                    0.07975
                ],
                [
                    -0.03391,
                    2.52617,
                    -0.04605
                ],
                [
                    0.03269,
                    -0.01886,
                    2.19025
                ]
            ],
            [
                [
                    2.56526,
                    0.03389,
                    -0.07975
                ],
                [
                    0.03386,
                    2.52611,
                    -0.04603
                ],
                [
                    -0.03267,
                    -0.01888,
                    2.19025
                ]
            ],
            [
                [
                    2.50656,
                    0.0,
                    0.0
                ],
                [
                    4e-05,
                    2.58483,
                    0.09208
                ],
                [
                    -2e-05,
                    0.03774,
                    2.19025
                ]
            ],
            [
                [
                    2.56527,
                    -0.03387,
                    0.07975
                ],
                [
                    -0.03386,
                    2.52611,
                    -0.04603
                ],
                [
                    0.03267,
                    -0.01888,
                    2.19025
                ]
            ],
            [
                [
                    2.56527,
                    0.03387,
                    -0.07975
                ],
                [
                    0.03391,
                    2.52617,
                    -0.04605
                ],
                [
                    -0.03269,
                    -0.01886,
                    2.19025
                ]
            ],
            [
                [
                    2.50661,
                    0.0,
                    -0.0
                ],
                [
                    -4e-05,
                    2.58483,
                    0.09208
                ],
                [
                    2e-05,
                    0.03774,
                    2.19025
                ]
            ],
            [
                [
                    2.61417,
                    -0.01137,
                    0.0
                ],
                [
                    0.01134,
                    2.61418,
                    0.0
                ],
                [
                    -0.0,
                    0.0,
                    0.7307
                ]
            ],
            [
                [
                    2.61417,
                    -0.01136,
                    -0.0
                ],
                [
                    0.01139,
                    2.61416,
                    -0.0
                ],
                [
                    -0.0,
                    0.0,
                    0.73068
                ]
            ],
            [
                [
                    2.61417,
                    0.01136,
                    0.0
                ],
                [
                    -0.01134,
                    2.61418,
                    0.0
                ],
                [
                    -0.0,
                    0.0,
                    0.7307
                ]
            ],
            [
                [
                    2.61417,
                    0.01137,
                    -0.0
                ],
                [
                    -0.01139,
                    2.61416,
                    -0.0
                ],
                [
                    -0.0,
                    0.0,
                    0.73068
                ]
            ],
            [
                [
                    -1.95599,
                    0.3297,
                    0.06272
                ],
                [
                    0.34758,
                    -2.33262,
                    -0.12426
                ],
                [
                    0.06341,
                    -0.11586,
                    -1.33868
                ]
            ],
            [
                [
                    -2.53169,
                    -0.01514,
                    -0.13898
                ],
                [
                    0.00279,
                    -1.75686,
                    0.00783
                ],
                [
                    -0.13204,
                    0.00301,
                    -1.33868
                ]
            ],
            [
                [
                    -1.94515,
                    -0.3413,
                    0.07631
                ],
                [
                    -0.32339,
                    -2.34336,
                    0.11648
                ],
                [
                    0.06863,
                    0.11284,
                    -1.33868
                ]
            ],
            [
                [
                    -1.95599,
                    -0.3297,
                    -0.06272
                ],
                [
                    -0.34746,
                    -2.33246,
                    -0.12434
                ],
                [
                    -0.06338,
                    -0.11583,
                    -1.33869
                ]
            ],
            [
                [
                    -2.53169,
                    0.01514,
                    0.13898
                ],
                [
                    -0.0026,
                    -1.75685,
                    0.00786
                ],
                [
                    0.132,
                    0.00302,
                    -1.33869
                ]
            ],
            [
                [
                    -1.94515,
                    0.3413,
                    -0.07631
                ],
                [
                    0.32349,
                    -2.3433,
                    0.11644
                ],
                [
                    -0.06862,
                    0.11281,
                    -1.33869
                ]
            ],
            [
                [
                    -2.53157,
                    -0.01517,
                    -0.13902
                ],
                [
                    0.0026,
                    -1.75685,
                    0.00786
                ],
                [
                    -0.132,
                    0.00302,
                    -1.33869
                ]
            ],
            [
                [
                    -1.95591,
                    0.32965,
                    0.0627
                ],
                [
                    0.34746,
                    -2.33246,
                    -0.12434
                ],
                [
                    0.06338,
                    -0.11583,
                    -1.33869
                ]
            ],
            [
                [
                    -1.94514,
                    -0.3413,
                    0.07626
                ],
                [
                    -0.32349,
                    -2.3433,
                    0.11644
                ],
                [
                    0.06862,
                    0.11281,
                    -1.33869
                ]
            ],
            [
                [
                    -2.53157,
                    0.01517,
                    0.13902
                ],
                [
                    -0.00279,
                    -1.75686,
                    0.00783
                ],
                [
                    0.13204,
                    0.00301,
                    -1.33868
                ]
            ],
            [
                [
                    -1.94514,
                    0.3413,
                    -0.07626
                ],
                [
                    0.32339,
                    -2.34336,
                    0.11648
                ],
                [
                    -0.06863,
                    0.11284,
                    -1.33868
                ]
            ],
            [
                [
                    -1.95591,
                    -0.32965,
                    -0.0627
                ],
                [
                    -0.34758,
                    -2.33262,
                    -0.12426
                ],
                [
                    -0.06341,
                    -0.11586,
                    -1.33868
                ]
            ]
        ]
    },
    "band_gap": 4.9908,
    "is_direct": false,
    "formula": "Ca3(BO3)2"
}