{
    "mp_id": "mp-3277",
    "nelements": 3,
    "nsites": 6,
    "elements": [
        "As",
        "B",
        "O"
    ],
    "structure": {
        "@module": "pymatgen.core.structure",
        "@class": "Structure",
        "charge": null,
        "lattice": {
            "matrix": [
                [
                    -2.2614278,
                    2.26142815,
                    3.40496239
                ],
                [
                    2.2614278,
                    -2.26142815,
                    3.40496239
                ],
                [
                    2.26142815,
                    2.2614278,
                    -3.40496239
                ]
            ],
            "a": 4.671389712873437,
            "b": 4.671389712873437,
            "c": 4.671389712873437,
            "alpha": 122.09272234962997,
            "beta": 122.09272234962997,
            "gamma": 86.41197373876541,
            "volume": 69.65267998219626
        },
        "sites": [
            {
                "species": [
                    {
                        "element": "B",
                        "occu": 1
                    }
                ],
                "abc": [
                    0.25,
                    0.75,
                    0.5
                ],
                "xyz": [
                    2.261427975,
                    -1.74999999824621e-07,
                    1.702481195
                ],
                "label": "B",
                "properties": {}
            },
            {
                "species": [
                    {
                        "element": "As",
                        "occu": 1
                    }
                ],
                "abc": [
                    0.0,
                    0.0,
                    0.0
                ],
                "xyz": [
                    0.0,
                    0.0,
                    0.0
                ],
                "label": "As",
                "properties": {}
            },
            {
                "species": [
                    {
                        "element": "O",
                        "occu": 1
                    }
                ],
                "abc": [
                    0.29356382,
                    0.41085262,
                    0.43809413
                ],
                "xyz": [
                    1.2559585508803996,
                    0.7254780505990939,
                    0.9068174491679211
                ],
                "label": "O",
                "properties": {}
            },
            {
                "species": [
                    {
                        "element": "O",
                        "occu": 1
                    }
                ],
                "abc": [
                    0.58914738,
                    0.02724151,
                    0.88271019
                ],
                "xyz": [
                    0.7254761165566626,
                    3.2668951150775225,
                    -0.9068140101559066
                ],
                "label": "O",
                "properties": {}
            },
            {
                "species": [
                    {
                        "element": "O",
                        "occu": 1
                    }
                ],
                "abc": [
                    0.97275849,
                    0.85546868,
                    0.56190587
                ],
                "xyz": [
                    1.0054673150775224,
                    1.5359520334433379,
                    4.311776400155907
                ],
                "label": "O",
                "properties": {}
            },
            {
                "species": [
                    {
                        "element": "O",
                        "occu": 1
                    }
                ],
                "abc": [
                    0.14453132,
                    0.70643618,
                    0.11728981
                ],
                "xyz": [
                    1.5359497494012593,
                    -1.005465031035091,
                    2.498144940832079
                ],
                "label": "O",
                "properties": {}
            }
        ]
    },
    "spacegroup": {
        "source": "spglib",
        "symbol": "I-4",
        "number": 82,
        "point_group": "-4",
        "crystal_system": "tetragonal",
        "hall": "I -4"
    },
    "dielectric": {
        "epsilon_ionic": [
            [
                2.33102891,
                9.86e-06,
                -9.775e-05
            ],
            [
                9.86e-06,
                2.33086384,
                -0.00014713
            ],
            [
                -9.775e-05,
                -0.00014713,
                3.24921589
            ]
        ],
        "epsilon_ionic_avg": 2.6370362133333347,
        "epsilon_ionic_eig": [
            3.249215923978611,
            2.3310294845639756,
            2.3308632314574185
        ],
        "epsilon_electronic": [
            [
                3.05982181,
                1.762e-05,
                0.0
            ],
            [
                -1.762e-05,
                3.05982181,
                0.0
            ],
            [
                0.0,
                0.0,
                3.14300548
            ]
        ],
        "epsilon_electronic_avg": 3.0875497,
        "epsilon_electronic_eig": [
            3.05982181,
            3.05982181,
            3.14300548
        ]
    },
    "phonon": {
        "lowest_freq": -0.05491401758326417,
        "frequency": [
            -0.05491401758326417,
            -0.05491401758326417,
            -0.019627258270384133,
            6.19499684878823,
            6.19499684878823,
            10.346404240266567,
            10.941689659750212,
            13.731584252515024,
            13.731584252515024,
            14.410142041300167,
            16.646333215918204,
            23.27460915677416,
            24.352871467900435,
            24.352871467900435,
            26.808317066697782,
            27.411706650063262,
            27.411706650063262,
            28.225831038791934
        ]
    },
    "born_effective_charge": {
        "avg_abs_trace": 2.121587777777778,
        "tensors": [
            [
                [
                    2.65116,
                    -1.0606,
                    -1e-05
                ],
                [
                    1.06054,
                    2.65092,
                    -0.00028
                ],
                [
                    0.0,
                    0.0,
                    2.72689
                ]
            ],
            [
                [
                    3.61614,
                    0.51782,
                    -0.00016
                ],
                [
                    -0.51802,
                    3.6163,
                    -5e-05
                ],
                [
                    0.0,
                    0.0,
                    3.83288
                ]
            ],
            [
                [
                    -2.03598,
                    0.31136,
                    -0.85442
                ],
                [
                    0.04007,
                    -1.09773,
                    0.14776
                ],
                [
                    -0.80162,
                    0.24437,
                    -1.63995
                ]
            ],
            [
                [
                    -1.09777,
                    -0.04012,
                    -0.1476
                ],
                [
                    -0.31138,
                    -2.03576,
                    -0.85438
                ],
                [
                    -0.24429,
                    -0.80154,
                    -1.63994
                ]
            ],
            [
                [
                    -2.03599,
                    0.31171,
                    0.85455
                ],
                [
                    0.04016,
                    -1.09758,
                    -0.14763
                ],
                [
                    0.80162,
                    -0.24437,
                    -1.63995
                ]
            ],
            [
                [
                    -1.09756,
                    -0.04017,
                    0.14763
                ],
                [
                    -0.31137,
                    -2.03614,
                    0.85457
                ],
                [
                    0.24429,
                    0.80154,
                    -1.63994
                ]
            ]
        ]
    },
    "band_gap": 4.380599999999999,
    "is_direct": false,
    "formula": "BAsO4"
}