{
    "mp_id": "mp-4624",
    "nelements": 3,
    "nsites": 12,
    "elements": [
        "B",
        "O",
        "Ta"
    ],
    "structure": {
        "@module": "pymatgen.core.structure",
        "@class": "Structure",
        "charge": null,
        "lattice": {
            "matrix": [
                [
                    -3.12864427,
                    3.12864427,
                    2.7587311
                ],
                [
                    3.12864427,
                    -3.12864427,
                    2.7587311
                ],
                [
                    3.12864427,
                    3.12864427,
                    -2.7587311
                ]
            ],
            "a": 5.214156424438653,
            "b": 5.214156424438653,
            "c": 5.214156424438653,
            "alpha": 106.25607255355206,
            "beta": 106.25607255355206,
            "gamma": 116.11271648258025,
            "volume": 108.0144191699577
        },
        "sites": [
            {
                "species": [
                    {
                        "element": "Ta",
                        "occu": 1
                    }
                ],
                "abc": [
                    0.0,
                    0.0,
                    0.0
                ],
                "xyz": [
                    0.0,
                    0.0,
                    0.0
                ],
                "label": "Ta",
                "properties": {}
            },
            {
                "species": [
                    {
                        "element": "Ta",
                        "occu": 1
                    }
                ],
                "abc": [
                    0.75,
                    0.25,
                    0.5
                ],
                "xyz": [
                    2.220446049250313e-16,
                    3.1286442699999997,
                    1.37936555
                ],
                "label": "Ta",
                "properties": {}
            },
            {
                "species": [
                    {
                        "element": "B",
                        "occu": 1
                    }
                ],
                "abc": [
                    0.5,
                    0.5,
                    0.0
                ],
                "xyz": [
                    0.0,
                    0.0,
                    2.7587311
                ],
                "label": "B",
                "properties": {}
            },
            {
                "species": [
                    {
                        "element": "B",
                        "occu": 1
                    }
                ],
                "abc": [
                    0.25,
                    0.75,
                    0.5
                ],
                "xyz": [
                    3.1286442699999997,
                    2.220446049250313e-16,
                    1.37936555
                ],
                "label": "B",
                "properties": {}
            },
            {
                "species": [
                    {
                        "element": "O",
                        "occu": 1
                    }
                ],
                "abc": [
                    0.14695302,
                    0.32494652,
                    0.8220055
                ],
                "xyz": [
                    3.1286411413557302,
                    2.01488445361124,
                    -0.9658482001473558
                ],
                "label": "O",
                "properties": {}
            },
            {
                "species": [
                    {
                        "element": "O",
                        "occu": 1
                    }
                ],
                "abc": [
                    0.07494652,
                    0.75294102,
                    0.6779945
                ],
                "xyz": [
                    4.24240721503303,
                    4.440892098500626e-16,
                    0.41351459112154343
                ],
                "label": "O",
                "properties": {}
            },
            {
                "species": [
                    {
                        "element": "O",
                        "occu": 1
                    }
                ],
                "abc": [
                    0.67505348,
                    0.49705898,
                    0.8220055
                ],
                "xyz": [
                    2.0148813249669697,
                    3.1286442700000006,
                    0.9658509588784558
                ],
                "label": "O",
                "properties": {}
            },
            {
                "species": [
                    {
                        "element": "O",
                        "occu": 1
                    }
                ],
                "abc": [
                    0.60304698,
                    0.92505348,
                    0.6779945
                ],
                "xyz": [
                    3.12864739864427,
                    1.1137598163887605,
                    2.3452137501473556
                ],
                "label": "O",
                "properties": {}
            },
            {
                "species": [
                    {
                        "element": "O",
                        "occu": 1
                    }
                ],
                "abc": [
                    0.24705898,
                    0.92505348,
                    0.3220055
                ],
                "xyz": [
                    3.1286442699999997,
                    -1.1137629450330297,
                    2.3452165088784565
                ],
                "label": "O",
                "properties": {}
            },
            {
                "species": [
                    {
                        "element": "O",
                        "occu": 1
                    }
                ],
                "abc": [
                    0.67505348,
                    0.85304698,
                    0.1779945
                ],
                "xyz": [
                    1.11375981638876,
                    3.1286442698785777e-06,
                    3.7245793001473557
                ],
                "label": "O",
                "properties": {}
            },
            {
                "species": [
                    {
                        "element": "O",
                        "occu": 1
                    }
                ],
                "abc": [
                    0.50294102,
                    0.32494652,
                    0.1779945
                ],
                "xyz": [
                    2.220446049250313e-16,
                    1.1137629450330297,
                    1.7928801411215436
                ],
                "label": "O",
                "properties": {}
            },
            {
                "species": [
                    {
                        "element": "O",
                        "occu": 1
                    }
                ],
                "abc": [
                    0.07494652,
                    0.39695302,
                    0.3220055
                ],
                "xyz": [
                    2.01488445361124,
                    -3.1286442698785777e-06,
                    0.4135173498526439
                ],
                "label": "O",
                "properties": {}
            }
        ]
    },
    "spacegroup": {
        "source": "spglib",
        "symbol": "I4_1/amd",
        "number": 141,
        "point_group": "4/mmm",
        "crystal_system": "tetragonal",
        "hall": "I 4bw 2bw -1bw"
    },
    "dielectric": {
        "epsilon_ionic": [
            [
                10.46362313,
                0.0,
                -0.0
            ],
            [
                0.0,
                10.46361483,
                -1e-08
            ],
            [
                -0.0,
                -1e-08,
                7.46654966
            ]
        ],
        "epsilon_ionic_avg": 9.464595873333332,
        "epsilon_ionic_eig": [
            7.46654966,
            10.46361483,
            10.46362313
        ],
        "epsilon_electronic": [
            [
                4.98279835,
                0.0,
                0.0
            ],
            [
                0.0,
                4.98279835,
                0.0
            ],
            [
                0.0,
                0.0,
                5.10763454
            ]
        ],
        "epsilon_electronic_avg": 5.024410413333334,
        "epsilon_electronic_eig": [
            4.98279835,
            4.98279835,
            5.10763454
        ]
    },
    "phonon": {
        "lowest_freq": -0.008271805292142106,
        "frequency": [
            -0.008271805292142106,
            -0.0050064028817804205,
            -0.005006402857371665,
            4.584456532799347,
            5.393611468223879,
            5.871081289780152,
            5.871081289780152,
            8.363451780127946,
            8.363451780127946,
            8.635704651990673,
            8.635704651990673,
            9.382102920228473,
            9.558485761491278,
            12.566233575320307,
            13.822477154224787,
            13.822477154224787,
            13.831057286363025,
            14.916484304442617,
            14.916484304442617,
            16.035980366935,
            16.89806419043697,
            16.988553410017975,
            16.988553410017975,
            20.43101716307862,
            20.43101716307862,
            20.57152570802741,
            22.215867326073596,
            24.295561986438123,
            24.85286498047662,
            24.85286498047662,
            26.81617458831849,
            26.81617458831849,
            28.340145848806426,
            28.380667257828183,
            29.071996927452822,
            29.217579165513193
        ]
    },
    "born_effective_charge": {
        "avg_abs_trace": 3.090048888888889,
        "tensors": [
            [
                [
                    6.64822,
                    -0.0,
                    -9e-05
                ],
                [
                    -0.0,
                    6.64822,
                    0.0
                ],
                [
                    -0.0,
                    -0.0,
                    5.34703
                ]
            ],
            [
                [
                    6.64822,
                    -0.0,
                    9e-05
                ],
                [
                    -0.0,
                    6.64822,
                    -0.0
                ],
                [
                    -0.0,
                    -0.0,
                    5.34703
                ]
            ],
            [
                [
                    2.56848,
                    0.0,
                    2e-05
                ],
                [
                    -0.0,
                    2.56848,
                    -1e-05
                ],
                [
                    -0.0,
                    -0.0,
                    4.03001
                ]
            ],
            [
                [
                    2.56848,
                    0.0,
                    -2e-05
                ],
                [
                    -0.0,
                    2.56848,
                    1e-05
                ],
                [
                    -0.0,
                    -0.0,
                    4.03001
                ]
            ],
            [
                [
                    -1.07811,
                    -9e-05,
                    6e-05
                ],
                [
                    -0.0,
                    -3.53026,
                    -0.30374
                ],
                [
                    -0.0,
                    -0.06732,
                    -2.34435
                ]
            ],
            [
                [
                    -3.53031,
                    -0.0,
                    0.30384
                ],
                [
                    1e-05,
                    -1.07811,
                    4e-05
                ],
                [
                    0.06732,
                    -0.0,
                    -2.34435
                ]
            ],
            [
                [
                    -3.53017,
                    0.0,
                    0.30386
                ],
                [
                    -1e-05,
                    -1.07811,
                    -4e-05
                ],
                [
                    0.06744,
                    0.0,
                    -2.34417
                ]
            ],
            [
                [
                    -1.07811,
                    9e-05,
                    -6e-05
                ],
                [
                    -0.0,
                    -3.53022,
                    -0.30395
                ],
                [
                    -0.0,
                    -0.06744,
                    -2.34417
                ]
            ],
            [
                [
                    -1.07811,
                    -9e-05,
                    -6e-05
                ],
                [
                    -0.0,
                    -3.53026,
                    0.30374
                ],
                [
                    -0.0,
                    0.06744,
                    -2.34417
                ]
            ],
            [
                [
                    -3.53031,
                    -0.0,
                    -0.30384
                ],
                [
                    1e-05,
                    -1.07811,
                    -4e-05
                ],
                [
                    -0.06744,
                    -0.0,
                    -2.34417
                ]
            ],
            [
                [
                    -1.07811,
                    9e-05,
                    6e-05
                ],
                [
                    0.0,
                    -3.53022,
                    0.30395
                ],
                [
                    -0.0,
                    0.06732,
                    -2.34435
                ]
            ],
            [
                [
                    -3.53017,
                    0.0,
                    -0.30386
                ],
                [
                    -1e-05,
                    -1.07811,
                    4e-05
                ],
                [
                    -0.06732,
                    -0.0,
                    -2.34435
                ]
            ]
        ]
    },
    "band_gap": 3.8437999999999994,
    "is_direct": false,
    "formula": "TaBO4"
}