{
    "mp_id": "mp-4790",
    "nelements": 3,
    "nsites": 12,
    "elements": [
        "Ge",
        "O",
        "Th"
    ],
    "structure": {
        "@module": "pymatgen.core.structure",
        "@class": "Structure",
        "charge": null,
        "lattice": {
            "matrix": [
                [
                    -3.73780276,
                    3.73780276,
                    3.3476461
                ],
                [
                    3.73780276,
                    -3.73780276,
                    3.3476461
                ],
                [
                    3.73780276,
                    3.73780276,
                    -3.3476461
                ]
            ],
            "a": 6.256922035327949,
            "b": 6.256922035327949,
            "c": 6.256922035327949,
            "alpha": 106.63405839634615,
            "beta": 106.63405839634615,
            "gamma": 115.30799744317777,
            "volume": 187.08212399040568
        },
        "sites": [
            {
                "species": [
                    {
                        "element": "Th",
                        "occu": 1
                    }
                ],
                "abc": [
                    0.5,
                    0.5,
                    0.0
                ],
                "xyz": [
                    0.0,
                    0.0,
                    3.3476461
                ],
                "label": "Th",
                "properties": {}
            },
            {
                "species": [
                    {
                        "element": "Th",
                        "occu": 1
                    }
                ],
                "abc": [
                    0.25,
                    0.75,
                    0.5
                ],
                "xyz": [
                    3.73780276,
                    2.220446049250313e-16,
                    1.67382305
                ],
                "label": "Th",
                "properties": {}
            },
            {
                "species": [
                    {
                        "element": "Ge",
                        "occu": 1
                    }
                ],
                "abc": [
                    0.75,
                    0.25,
                    0.5
                ],
                "xyz": [
                    2.220446049250313e-16,
                    3.73780276,
                    1.67382305
                ],
                "label": "Ge",
                "properties": {}
            },
            {
                "species": [
                    {
                        "element": "Ge",
                        "occu": 1
                    }
                ],
                "abc": [
                    0.0,
                    0.0,
                    0.0
                ],
                "xyz": [
                    0.0,
                    0.0,
                    0.0
                ],
                "label": "Ge",
                "properties": {}
            },
            {
                "species": [
                    {
                        "element": "O",
                        "occu": 1
                    }
                ],
                "abc": [
                    0.00125523,
                    0.82254132,
                    0.17871391
                ],
                "xyz": [
                    3.73780276,
                    -2.4018080679032163,
                    2.1595083839737037
                ],
                "label": "O",
                "properties": {}
            },
            {
                "species": [
                    {
                        "element": "O",
                        "occu": 1
                    }
                ],
                "abc": [
                    0.57254132,
                    0.89382842,
                    0.32128609
                ],
                "xyz": [
                    2.4018118430840043,
                    -3.775180787091159e-06,
                    3.833334815096265
                ],
                "label": "O",
                "properties": {}
            },
            {
                "species": [
                    {
                        "element": "O",
                        "occu": 1
                    }
                ],
                "abc": [
                    0.57254132,
                    0.25125523,
                    0.67871391
                ],
                "xyz": [
                    1.3359946920967833,
                    3.7378027600000006,
                    0.4856853339737035
                ],
                "label": "O",
                "properties": {}
            },
            {
                "species": [
                    {
                        "element": "O",
                        "occu": 1
                    }
                ],
                "abc": [
                    0.64382842,
                    0.82254132,
                    0.82128609
                ],
                "xyz": [
                    3.737798984819212,
                    2.4018118430840043,
                    2.1595117650962647
                ],
                "label": "O",
                "properties": {}
            },
            {
                "species": [
                    {
                        "element": "O",
                        "occu": 1
                    }
                ],
                "abc": [
                    0.17745868,
                    0.35617158,
                    0.17871391
                ],
                "xyz": [
                    1.3359909169159956,
                    3.775180787757293e-06,
                    1.1881343349037348
                ],
                "label": "O",
                "properties": {}
            },
            {
                "species": [
                    {
                        "element": "O",
                        "occu": 1
                    }
                ],
                "abc": [
                    0.74874477,
                    0.42745868,
                    0.32128609
                ],
                "xyz": [
                    0.0,
                    2.401808067903217,
                    2.8619607660262965
                ],
                "label": "O",
                "properties": {}
            },
            {
                "species": [
                    {
                        "element": "O",
                        "occu": 1
                    }
                ],
                "abc": [
                    0.10617158,
                    0.42745868,
                    0.67871391
                ],
                "xyz": [
                    3.7378065351807876,
                    1.335990916915996,
                    -0.4856887150962652
                ],
                "label": "O",
                "properties": {}
            },
            {
                "species": [
                    {
                        "element": "O",
                        "occu": 1
                    }
                ],
                "abc": [
                    0.17745868,
                    0.99874477,
                    0.82128609
                ],
                "xyz": [
                    6.139610827903216,
                    0.0,
                    1.1881377160262958
                ],
                "label": "O",
                "properties": {}
            }
        ]
    },
    "spacegroup": {
        "source": "spglib",
        "symbol": "I4_1/amd",
        "number": 141,
        "point_group": "4/mmm",
        "crystal_system": "tetragonal",
        "hall": "I 4bw 2bw -1bw"
    },
    "dielectric": {
        "epsilon_ionic": [
            [
                7.26600208,
                0.0,
                0.0
            ],
            [
                0.0,
                7.26598861,
                -0.0
            ],
            [
                0.0,
                -0.0,
                6.63981497
            ]
        ],
        "epsilon_ionic_avg": 7.0572685533333335,
        "epsilon_ionic_eig": [
            7.26600208,
            7.26598861,
            6.63981497
        ],
        "epsilon_electronic": [
            [
                3.84376513,
                0.0,
                0.0
            ],
            [
                0.0,
                3.84376513,
                0.0
            ],
            [
                0.0,
                0.0,
                4.24174532
            ]
        ],
        "epsilon_electronic_avg": 3.9764251933333328,
        "epsilon_electronic_eig": [
            3.84376513,
            3.84376513,
            4.24174532
        ]
    },
    "phonon": {
        "lowest_freq": -0.015507628867635594,
        "frequency": [
            -0.015507628867635594,
            -0.015507628867635594,
            -0.008262493925027823,
            2.8770847732779705,
            2.8900154810119116,
            2.8900154810119116,
            3.4124737297428394,
            5.058219523304383,
            5.066899138368078,
            5.066899138368078,
            5.270036653643653,
            5.270036653643653,
            5.357778151677088,
            7.507607396524382,
            7.527001291479961,
            7.527001291479961,
            7.827434729572533,
            7.827434729572533,
            7.859727463196559,
            8.611761327182041,
            9.926873823566378,
            9.926873823566378,
            11.679527638425972,
            11.779685121047738,
            11.779685121047738,
            11.877547016971677,
            13.357976790365665,
            14.63453997589227,
            19.99385134652427,
            19.99385134652427,
            20.889030056916564,
            20.889030056916564,
            22.01423236749304,
            22.904990819252497,
            23.90570304993877,
            24.177470208413084
        ]
    },
    "born_effective_charge": {
        "avg_abs_trace": 3.0305633333333333,
        "tensors": [
            [
                [
                    5.53363,
                    0.0,
                    -2e-05
                ],
                [
                    -0.0,
                    5.53362,
                    4e-05
                ],
                [
                    0.0,
                    -0.0,
                    5.45112
                ]
            ],
            [
                [
                    5.53363,
                    0.0,
                    2e-05
                ],
                [
                    -0.0,
                    5.53362,
                    -4e-05
                ],
                [
                    0.0,
                    -0.0,
                    5.45112
                ]
            ],
            [
                [
                    3.15684,
                    0.0,
                    2e-05
                ],
                [
                    -0.0,
                    3.15684,
                    2e-05
                ],
                [
                    0.0,
                    -0.0,
                    4.44302
                ]
            ],
            [
                [
                    3.15684,
                    0.0,
                    -2e-05
                ],
                [
                    -0.0,
                    3.15684,
                    -2e-05
                ],
                [
                    0.0,
                    -0.0,
                    4.44302
                ]
            ],
            [
                [
                    -1.07686,
                    3e-05,
                    1e-05
                ],
                [
                    0.0,
                    -3.26834,
                    0.43332
                ],
                [
                    0.0,
                    0.3386,
                    -2.47355
                ]
            ],
            [
                [
                    -3.26835,
                    0.0,
                    -0.43327
                ],
                [
                    1e-05,
                    -1.07687,
                    0.0
                ],
                [
                    -0.3386,
                    -0.0,
                    -2.47355
                ]
            ],
            [
                [
                    -3.26839,
                    0.0,
                    0.43323
                ],
                [
                    -1e-05,
                    -1.07687,
                    0.0
                ],
                [
                    0.3386,
                    -0.0,
                    -2.47355
                ]
            ],
            [
                [
                    -1.07686,
                    -3e-05,
                    1e-05
                ],
                [
                    -0.0,
                    -3.26839,
                    -0.43322
                ],
                [
                    0.0,
                    -0.3386,
                    -2.47355
                ]
            ],
            [
                [
                    -3.26839,
                    0.0,
                    -0.43323
                ],
                [
                    -1e-05,
                    -1.07687,
                    -0.0
                ],
                [
                    -0.33863,
                    -0.0,
                    -2.47352
                ]
            ],
            [
                [
                    -1.07686,
                    -3e-05,
                    -1e-05
                ],
                [
                    -0.0,
                    -3.26839,
                    0.43322
                ],
                [
                    0.0,
                    0.33863,
                    -2.47352
                ]
            ],
            [
                [
                    -1.07686,
                    3e-05,
                    -1e-05
                ],
                [
                    0.0,
                    -3.26834,
                    -0.43332
                ],
                [
                    0.0,
                    -0.33863,
                    -2.47352
                ]
            ],
            [
                [
                    -3.26835,
                    0.0,
                    0.43327
                ],
                [
                    1e-05,
                    -1.07687,
                    -0.0
                ],
                [
                    0.33863,
                    -0.0,
                    -2.47352
                ]
            ]
        ]
    },
    "band_gap": 3.6740000000000004,
    "is_direct": false,
    "formula": "ThGeO4"
}