{
    "mp_id": "mp-4527",
    "nelements": 3,
    "nsites": 15,
    "elements": [
        "Li",
        "O",
        "Sn"
    ],
    "structure": {
        "@module": "pymatgen.core.structure",
        "@class": "Structure",
        "charge": null,
        "lattice": {
            "matrix": [
                [
                    2.7330913,
                    1.57795071,
                    5.10023008
                ],
                [
                    -2.7330913,
                    1.5779507,
                    5.10023008
                ],
                [
                    0.0,
                    -3.15590141,
                    5.10023008
                ]
            ],
            "a": 5.997671495360679,
            "b": 5.99767149272974,
            "c": 5.997671262963384,
            "alpha": 54.21893625389401,
            "beta": 54.2189363339697,
            "gamma": 54.21894332717452,
            "volume": 131.97406388923187
        },
        "sites": [
            {
                "species": [
                    {
                        "element": "Li",
                        "occu": 1
                    }
                ],
                "abc": [
                    0.09995073,
                    0.76530615,
                    0.49550453
                ],
                "xyz": [
                    -1.818477109809846,
                    -0.19843074441306396,
                    6.9401962749852135
                ],
                "label": "Li",
                "properties": {}
            },
            {
                "species": [
                    {
                        "element": "Li",
                        "occu": 1
                    }
                ],
                "abc": [
                    0.49550453,
                    0.09995073,
                    0.76530615
                ],
                "xyz": [
                    1.08108464946194,
                    -1.475631708575944,
                    6.9401962749852135
                ],
                "label": "Li",
                "properties": {}
            },
            {
                "species": [
                    {
                        "element": "Li",
                        "occu": 1
                    }
                ],
                "abc": [
                    0.76530615,
                    0.49550453,
                    0.09995073
                ],
                "xyz": [
                    0.7373924603479061,
                    1.6740624529890082,
                    6.940196274985213
                ],
                "label": "Li",
                "properties": {}
            },
            {
                "species": [
                    {
                        "element": "Li",
                        "occu": 1
                    }
                ],
                "abc": [
                    0.90004927,
                    0.23469385,
                    0.50449547
                ],
                "xyz": [
                    1.8184771098098462,
                    0.1984307444130644,
                    8.360493965014786
                ],
                "label": "Li",
                "properties": {}
            },
            {
                "species": [
                    {
                        "element": "Li",
                        "occu": 1
                    }
                ],
                "abc": [
                    0.50449547,
                    0.90004927,
                    0.23469385
                ],
                "xyz": [
                    -1.0810846494619404,
                    1.4756317085759445,
                    8.360493965014788
                ],
                "label": "Li",
                "properties": {}
            },
            {
                "species": [
                    {
                        "element": "Li",
                        "occu": 1
                    }
                ],
                "abc": [
                    0.23469385,
                    0.50449547,
                    0.90004927
                ],
                "xyz": [
                    -0.7373924603479057,
                    -1.674062452989008,
                    8.360493965014786
                ],
                "label": "Li",
                "properties": {}
            },
            {
                "species": [
                    {
                        "element": "Li",
                        "occu": 1
                    }
                ],
                "abc": [
                    0.34527138,
                    0.34527138,
                    0.34527138
                ],
                "xyz": [
                    0.0,
                    0.0,
                    5.2828904341173315
                ],
                "label": "Li",
                "properties": {}
            },
            {
                "species": [
                    {
                        "element": "Li",
                        "occu": 1
                    }
                ],
                "abc": [
                    0.65472862,
                    0.65472862,
                    0.65472862
                ],
                "xyz": [
                    0.0,
                    0.0,
                    10.01779980588267
                ],
                "label": "Li",
                "properties": {}
            },
            {
                "species": [
                    {
                        "element": "Sn",
                        "occu": 1
                    }
                ],
                "abc": [
                    0.0,
                    0.0,
                    0.0
                ],
                "xyz": [
                    0.0,
                    0.0,
                    0.0
                ],
                "label": "Sn",
                "properties": {}
            },
            {
                "species": [
                    {
                        "element": "O",
                        "occu": 1
                    }
                ],
                "abc": [
                    0.90558502,
                    0.6150718,
                    0.23570649
                ],
                "xyz": [
                    0.793999154116986,
                    1.6556550584974734,
                    8.957856985070364
                ],
                "label": "O",
                "properties": {}
            },
            {
                "species": [
                    {
                        "element": "O",
                        "occu": 1
                    }
                ],
                "abc": [
                    0.76429351,
                    0.09441498,
                    0.3849282
                ],
                "xyz": [
                    1.8308391823997887,
                    0.14020422140561628,
                    6.342833254929635
                ],
                "label": "O",
                "properties": {}
            },
            {
                "species": [
                    {
                        "element": "O",
                        "occu": 1
                    }
                ],
                "abc": [
                    0.3849282,
                    0.76429351,
                    0.09441498
                ],
                "xyz": [
                    -1.036840028282803,
                    1.5154508370918571,
                    6.342833254929635
                ],
                "label": "O",
                "properties": {}
            },
            {
                "species": [
                    {
                        "element": "O",
                        "occu": 1
                    }
                ],
                "abc": [
                    0.09441498,
                    0.3849282,
                    0.76429351
                ],
                "xyz": [
                    -0.7939991541169859,
                    -1.6556550584974732,
                    6.342833254929635
                ],
                "label": "O",
                "properties": {}
            },
            {
                "species": [
                    {
                        "element": "O",
                        "occu": 1
                    }
                ],
                "abc": [
                    0.23570649,
                    0.90558502,
                    0.6150718
                ],
                "xyz": [
                    -1.8308391823997887,
                    -0.14020422140561584,
                    8.957856985070364
                ],
                "label": "O",
                "properties": {}
            },
            {
                "species": [
                    {
                        "element": "O",
                        "occu": 1
                    }
                ],
                "abc": [
                    0.6150718,
                    0.23570649,
                    0.90558502
                ],
                "xyz": [
                    1.036840028282803,
                    -1.5154508370918567,
                    8.957856985070364
                ],
                "label": "O",
                "properties": {}
            }
        ]
    },
    "spacegroup": {
        "source": "spglib",
        "symbol": "R-3",
        "number": 148,
        "point_group": "-3",
        "crystal_system": "trigonal",
        "hall": "-R 3"
    },
    "dielectric": {
        "epsilon_ionic": [
            [
                7.59298235,
                -9.12e-06,
                -6.13e-06
            ],
            [
                -9.12e-06,
                7.59300906,
                -4.73e-06
            ],
            [
                -6.13e-06,
                -4.73e-06,
                8.43714946
            ]
        ],
        "epsilon_ionic_avg": 7.874380289999998,
        "epsilon_ionic_eig": [
            7.592979533035352,
            7.593011876893626,
            8.437149460071018
        ],
        "epsilon_electronic": [
            [
                3.19568902,
                -3.8e-07,
                0.0
            ],
            [
                3.8e-07,
                3.19568973,
                0.0
            ],
            [
                0.0,
                0.0,
                3.28013836
            ]
        ],
        "epsilon_electronic_avg": 3.2238390366666674,
        "epsilon_electronic_eig": [
            3.1956893750000006,
            3.1956893750000006,
            3.28013836
        ]
    },
    "phonon": {
        "lowest_freq": -0.021391836032247716,
        "frequency": [
            -0.021391836032247716,
            -0.021391833690137876,
            -0.017152990466270487,
            5.763272536496079,
            5.763272960560915,
            6.112975399921074,
            6.8559954735539925,
            6.855995865678139,
            7.333231618566606,
            7.6616560418838855,
            7.661656552269885,
            8.60363032050288,
            8.603630988058626,
            8.975211673290163,
            8.975211850288867,
            9.245309367519537,
            10.42476923889923,
            10.803242640384115,
            10.80324290054688,
            11.518912113577784,
            11.76728783307597,
            11.767287978462141,
            12.142816371648157,
            12.216318298978448,
            12.216318469029773,
            13.078905673665568,
            13.262989242029544,
            13.817596371023527,
            13.817597193496947,
            14.07918426814008,
            14.079184641357923,
            15.647194067591752,
            15.647194614271518,
            15.667940322525855,
            15.772551503763296,
            16.390918493173032,
            16.485157289509317,
            16.48515803078258,
            17.737160984104268,
            18.270719036403815,
            18.27071923705284,
            18.273703179428388,
            18.760163677683487,
            18.760164198787955,
            18.99318381630923
        ]
    },
    "born_effective_charge": {
        "avg_abs_trace": 1.5288155555555558,
        "tensors": [
            [
                [
                    0.86006,
                    -0.1091,
                    -0.03356
                ],
                [
                    -0.12634,
                    0.97923,
                    -0.09353
                ],
                [
                    -0.02219,
                    -0.01167,
                    1.04399
                ]
            ],
            [
                [
                    0.84749,
                    0.11908,
                    0.09777
                ],
                [
                    0.10185,
                    0.9918,
                    0.0177
                ],
                [
                    0.0212,
                    -0.01338,
                    1.04399
                ]
            ],
            [
                [
                    1.05139,
                    0.01588,
                    -0.06422
                ],
                [
                    -0.00136,
                    0.7879,
                    0.07583
                ],
                [
                    0.00099,
                    0.02505,
                    1.04399
                ]
            ],
            [
                [
                    0.86005,
                    -0.1091,
                    -0.03356
                ],
                [
                    -0.12634,
                    0.97922,
                    -0.09353
                ],
                [
                    -0.02219,
                    -0.01167,
                    1.044
                ]
            ],
            [
                [
                    0.84748,
                    0.11908,
                    0.09778
                ],
                [
                    0.10184,
                    0.99179,
                    0.0177
                ],
                [
                    0.0212,
                    -0.01338,
                    1.044
                ]
            ],
            [
                [
                    1.05138,
                    0.01588,
                    -0.06422
                ],
                [
                    -0.00136,
                    0.7879,
                    0.07582
                ],
                [
                    0.00099,
                    0.02505,
                    1.044
                ]
            ],
            [
                [
                    1.13148,
                    -0.00803,
                    -0.0
                ],
                [
                    0.00803,
                    1.13148,
                    -0.0
                ],
                [
                    0.0,
                    -0.0,
                    0.84884
                ]
            ],
            [
                [
                    1.13148,
                    -0.00803,
                    -0.0
                ],
                [
                    0.00803,
                    1.13148,
                    -0.0
                ],
                [
                    0.0,
                    -0.0,
                    0.84884
                ]
            ],
            [
                [
                    3.64583,
                    -0.01848,
                    0.0
                ],
                [
                    0.01848,
                    3.64584,
                    -0.0
                ],
                [
                    0.0,
                    -0.0,
                    3.58343
                ]
            ],
            [
                [
                    -1.82733,
                    0.18065,
                    0.12664
                ],
                [
                    0.18637,
                    -1.98153,
                    -0.2683
                ],
                [
                    0.14464,
                    -0.24064,
                    -1.92418
                ]
            ],
            [
                [
                    -1.78406,
                    -0.16137,
                    0.16905
                ],
                [
                    -0.15564,
                    -2.02483,
                    0.24382
                ],
                [
                    0.13607,
                    0.2456,
                    -1.92417
                ]
            ],
            [
                [
                    -2.10192,
                    -0.02786,
                    -0.29568
                ],
                [
                    -0.02214,
                    -1.70699,
                    0.02449
                ],
                [
                    -0.28073,
                    -0.00496,
                    -1.92417
                ]
            ],
            [
                [
                    -1.82736,
                    0.18065,
                    0.12664
                ],
                [
                    0.18637,
                    -1.98153,
                    -0.26831
                ],
                [
                    0.14466,
                    -0.24064,
                    -1.92417
                ]
            ],
            [
                [
                    -1.78406,
                    -0.16139,
                    0.16905
                ],
                [
                    -0.15567,
                    -2.02481,
                    0.24382
                ],
                [
                    0.13608,
                    0.24558,
                    -1.92418
                ]
            ],
            [
                [
                    -2.10191,
                    -0.02784,
                    -0.29569
                ],
                [
                    -0.02212,
                    -1.70696,
                    0.02449
                ],
                [
                    -0.28072,
                    -0.00495,
                    -1.92418
                ]
            ]
        ]
    },
    "band_gap": 4.0266,
    "is_direct": false,
    "formula": "Li8SnO6"
}