{
    "mp_id": "mp-4558",
    "nelements": 3,
    "nsites": 18,
    "elements": [
        "Ge",
        "Li",
        "O"
    ],
    "structure": {
        "@module": "pymatgen.core.structure",
        "@class": "Structure",
        "charge": null,
        "lattice": {
            "matrix": [
                [
                    3.91361469,
                    -3.67241452,
                    0.0
                ],
                [
                    3.91361469,
                    3.67241452,
                    0.0
                ],
                [
                    0.0,
                    0.0,
                    6.07924473
                ]
            ],
            "a": 5.36684342500232,
            "b": 5.36684342500232,
            "c": 6.07924473,
            "alpha": 90.0,
            "beta": 90.0,
            "gamma": 86.35775259746038,
            "volume": 174.7468613166359
        },
        "sites": [
            {
                "species": [
                    {
                        "element": "Li",
                        "occu": 1
                    }
                ],
                "abc": [
                    0.57962597,
                    0.12482609,
                    0.75
                ],
                "xyz": [
                    2.756953930416762,
                    -1.6702136830062577,
                    4.5594335475
                ],
                "label": "Li",
                "properties": {}
            },
            {
                "species": [
                    {
                        "element": "Li",
                        "occu": 1
                    }
                ],
                "abc": [
                    0.42037403,
                    0.87517391,
                    0.25
                ],
                "xyz": [
                    5.070275449583239,
                    1.6702136830062575,
                    1.5198111825
                ],
                "label": "Li",
                "properties": {}
            },
            {
                "species": [
                    {
                        "element": "Li",
                        "occu": 1
                    }
                ],
                "abc": [
                    0.16086571,
                    0.16086571,
                    0.0
                ],
                "xyz": [
                    1.2591328115465599,
                    0.0,
                    0.0
                ],
                "label": "Li",
                "properties": {}
            },
            {
                "species": [
                    {
                        "element": "Li",
                        "occu": 1
                    }
                ],
                "abc": [
                    0.83913429,
                    0.83913429,
                    0.5
                ],
                "xyz": [
                    6.5680965684534405,
                    0.0,
                    3.039622365
                ],
                "label": "Li",
                "properties": {}
            },
            {
                "species": [
                    {
                        "element": "Li",
                        "occu": 1
                    }
                ],
                "abc": [
                    0.83913429,
                    0.83913429,
                    0.0
                ],
                "xyz": [
                    6.5680965684534405,
                    0.0,
                    0.0
                ],
                "label": "Li",
                "properties": {}
            },
            {
                "species": [
                    {
                        "element": "Li",
                        "occu": 1
                    }
                ],
                "abc": [
                    0.16086571,
                    0.16086571,
                    0.5
                ],
                "xyz": [
                    1.2591328115465599,
                    0.0,
                    3.039622365
                ],
                "label": "Li",
                "properties": {}
            },
            {
                "species": [
                    {
                        "element": "Li",
                        "occu": 1
                    }
                ],
                "abc": [
                    0.12482609,
                    0.57962597,
                    0.25
                ],
                "xyz": [
                    2.756953930416762,
                    1.6702136830062577,
                    1.5198111825
                ],
                "label": "Li",
                "properties": {}
            },
            {
                "species": [
                    {
                        "element": "Li",
                        "occu": 1
                    }
                ],
                "abc": [
                    0.87517391,
                    0.42037403,
                    0.75
                ],
                "xyz": [
                    5.070275449583239,
                    -1.6702136830062575,
                    4.5594335475
                ],
                "label": "Li",
                "properties": {}
            },
            {
                "species": [
                    {
                        "element": "Ge",
                        "occu": 1
                    }
                ],
                "abc": [
                    0.34036985,
                    0.65963015,
                    0.75
                ],
                "xyz": [
                    3.91361469,
                    1.172456161379556,
                    4.5594335475
                ],
                "label": "Ge",
                "properties": {}
            },
            {
                "species": [
                    {
                        "element": "Ge",
                        "occu": 1
                    }
                ],
                "abc": [
                    0.65963015,
                    0.34036985,
                    0.25
                ],
                "xyz": [
                    3.91361469,
                    -1.172456161379556,
                    1.5198111825
                ],
                "label": "Ge",
                "properties": {}
            },
            {
                "species": [
                    {
                        "element": "O",
                        "occu": 1
                    }
                ],
                "abc": [
                    0.33862043,
                    0.26694516,
                    0.25
                ],
                "xyz": [
                    2.369950388782517,
                    -0.2632213022729203,
                    1.5198111825
                ],
                "label": "O",
                "properties": {}
            },
            {
                "species": [
                    {
                        "element": "O",
                        "occu": 1
                    }
                ],
                "abc": [
                    0.66137957,
                    0.73305484,
                    0.75
                ],
                "xyz": [
                    5.457278991217484,
                    0.2632213022729202,
                    4.5594335475
                ],
                "label": "O",
                "properties": {}
            },
            {
                "species": [
                    {
                        "element": "O",
                        "occu": 1
                    }
                ],
                "abc": [
                    0.79648232,
                    0.20351768,
                    0.00399667
                ],
                "xyz": [
                    3.91361469,
                    -2.1776119537825727,
                    0.0242967350350491
                ],
                "label": "O",
                "properties": {}
            },
            {
                "species": [
                    {
                        "element": "O",
                        "occu": 1
                    }
                ],
                "abc": [
                    0.20351768,
                    0.79648232,
                    0.50399667
                ],
                "xyz": [
                    3.91361469,
                    2.1776119537825727,
                    3.0639191000350494
                ],
                "label": "O",
                "properties": {}
            },
            {
                "species": [
                    {
                        "element": "O",
                        "occu": 1
                    }
                ],
                "abc": [
                    0.79648232,
                    0.20351768,
                    0.49600333
                ],
                "xyz": [
                    3.91361469,
                    -2.1776119537825727,
                    3.015325629964951
                ],
                "label": "O",
                "properties": {}
            },
            {
                "species": [
                    {
                        "element": "O",
                        "occu": 1
                    }
                ],
                "abc": [
                    0.20351768,
                    0.79648232,
                    0.99600333
                ],
                "xyz": [
                    3.91361469,
                    2.1776119537825727,
                    6.054947994964951
                ],
                "label": "O",
                "properties": {}
            },
            {
                "species": [
                    {
                        "element": "O",
                        "occu": 1
                    }
                ],
                "abc": [
                    0.73305484,
                    0.66137957,
                    0.25
                ],
                "xyz": [
                    5.457278991217484,
                    -0.2632213022729202,
                    1.5198111825
                ],
                "label": "O",
                "properties": {}
            },
            {
                "species": [
                    {
                        "element": "O",
                        "occu": 1
                    }
                ],
                "abc": [
                    0.26694516,
                    0.33862043,
                    0.75
                ],
                "xyz": [
                    2.369950388782517,
                    0.2632213022729203,
                    4.5594335475
                ],
                "label": "O",
                "properties": {}
            }
        ]
    },
    "spacegroup": {
        "source": "spglib",
        "symbol": "Cmcm",
        "number": 63,
        "point_group": "mmm",
        "crystal_system": "orthorhombic",
        "hall": "-C 2c 2"
    },
    "dielectric": {
        "epsilon_ionic": [
            [
                4.63633613,
                1e-08,
                2e-08
            ],
            [
                1e-08,
                3.86405656,
                1e-08
            ],
            [
                2e-08,
                1e-08,
                3.81262762
            ]
        ],
        "epsilon_ionic_avg": 4.104340103333333,
        "epsilon_ionic_eig": [
            4.63633613,
            3.812627619999997,
            3.8640565600000003
        ],
        "epsilon_electronic": [
            [
                3.04713251,
                0.0,
                0.0
            ],
            [
                0.0,
                2.90840004,
                0.0
            ],
            [
                0.0,
                0.0,
                2.97380251
            ]
        ],
        "epsilon_electronic_avg": 2.97644502,
        "epsilon_electronic_eig": [
            3.04713251,
            2.90840004,
            2.97380251
        ]
    },
    "phonon": {
        "lowest_freq": -0.088788125568038,
        "frequency": [
            -0.088788125568038,
            -0.04077378744195996,
            -0.027006846982233,
            3.5625939174945964,
            3.8431043216614484,
            5.080612504927425,
            5.456280229404517,
            6.133800141542165,
            7.556056665880778,
            7.606118686148067,
            7.964968950930235,
            8.26520285621578,
            8.273248127183596,
            8.472262161336106,
            8.73711727025639,
            8.797658708989825,
            9.233822961017006,
            9.284030112260254,
            10.189656604853724,
            10.261235162766916,
            10.619897606910934,
            10.631262259785654,
            10.874652672018636,
            11.465415522742104,
            11.585028221551577,
            11.590729734594,
            11.864819568635644,
            12.599109776107197,
            13.049674886982405,
            13.072278991876427,
            13.169765792918387,
            13.591158115845438,
            13.900428850576635,
            14.480672661302307,
            14.535648798825262,
            14.554229654799515,
            14.565695525068083,
            14.611381802313861,
            14.612469983862727,
            16.0731391871756,
            16.538212461146202,
            16.582736579798983,
            16.7469486941985,
            16.85285008749354,
            17.137423884146948,
            17.668653693468475,
            20.283783656864887,
            20.315949754632435,
            21.007389621876413,
            21.35769155591627,
            21.506667707562833,
            21.95922509692147,
            22.216585029631634,
            22.42423340717501
        ]
    },
    "born_effective_charge": {
        "avg_abs_trace": 1.5376481481481483,
        "tensors": [
            [
                [
                    1.02022,
                    0.18537,
                    0.0
                ],
                [
                    0.09441,
                    0.98807,
                    -0.0
                ],
                [
                    -5e-05,
                    3e-05,
                    1.09254
                ]
            ],
            [
                [
                    1.02022,
                    0.18538,
                    0.0
                ],
                [
                    0.09439,
                    0.98808,
                    -0.0
                ],
                [
                    5e-05,
                    -3e-05,
                    1.09254
                ]
            ],
            [
                [
                    1.09564,
                    0.0,
                    0.0
                ],
                [
                    1e-05,
                    1.01037,
                    -0.14386
                ],
                [
                    -4e-05,
                    0.09227,
                    0.91047
                ]
            ],
            [
                [
                    1.09562,
                    0.0,
                    0.0
                ],
                [
                    -1e-05,
                    1.01037,
                    0.14386
                ],
                [
                    4e-05,
                    -0.09227,
                    0.91047
                ]
            ],
            [
                [
                    1.09562,
                    0.0,
                    0.0
                ],
                [
                    -1e-05,
                    1.01037,
                    -0.14386
                ],
                [
                    4e-05,
                    0.09227,
                    0.91047
                ]
            ],
            [
                [
                    1.09564,
                    0.0,
                    0.0
                ],
                [
                    1e-05,
                    1.01037,
                    0.14386
                ],
                [
                    -4e-05,
                    -0.09227,
                    0.91047
                ]
            ],
            [
                [
                    1.02022,
                    -0.18537,
                    0.0
                ],
                [
                    -0.09439,
                    0.98808,
                    -0.0
                ],
                [
                    -5e-05,
                    -3e-05,
                    1.09254
                ]
            ],
            [
                [
                    1.02022,
                    -0.18538,
                    -0.0
                ],
                [
                    -0.09441,
                    0.98807,
                    -0.0
                ],
                [
                    5e-05,
                    3e-05,
                    1.09254
                ]
            ],
            [
                [
                    2.81428,
                    4e-05,
                    0.0
                ],
                [
                    0.0,
                    2.68506,
                    -0.0
                ],
                [
                    0.0,
                    -3e-05,
                    3.02432
                ]
            ],
            [
                [
                    2.81428,
                    -4e-05,
                    0.0
                ],
                [
                    0.0,
                    2.685,
                    -0.0
                ],
                [
                    0.0,
                    3e-05,
                    3.02432
                ]
            ],
            [
                [
                    -1.9855,
                    0.29998,
                    0.0
                ],
                [
                    0.35675,
                    -1.65689,
                    -0.0
                ],
                [
                    -0.00014,
                    0.00018,
                    -1.47257
                ]
            ],
            [
                [
                    -1.98526,
                    0.29992,
                    0.0
                ],
                [
                    0.35697,
                    -1.65688,
                    -0.0
                ],
                [
                    0.00014,
                    -0.00018,
                    -1.47257
                ]
            ],
            [
                [
                    -1.53761,
                    0.00012,
                    0.00012
                ],
                [
                    0.0,
                    -1.68401,
                    -0.25377
                ],
                [
                    0.0,
                    -0.34824,
                    -2.04248
                ]
            ],
            [
                [
                    -1.53761,
                    -0.00012,
                    0.00012
                ],
                [
                    0.0,
                    -1.68415,
                    0.25397
                ],
                [
                    0.0,
                    0.34824,
                    -2.04248
                ]
            ],
            [
                [
                    -1.53761,
                    0.00012,
                    -0.00012
                ],
                [
                    0.0,
                    -1.68401,
                    0.25377
                ],
                [
                    0.0,
                    0.34833,
                    -2.04273
                ]
            ],
            [
                [
                    -1.53761,
                    -0.00012,
                    -0.00012
                ],
                [
                    0.0,
                    -1.68415,
                    -0.25397
                ],
                [
                    0.0,
                    -0.34833,
                    -2.04273
                ]
            ],
            [
                [
                    -1.98526,
                    -0.29992,
                    0.0
                ],
                [
                    -0.35675,
                    -1.65689,
                    -0.0
                ],
                [
                    0.00014,
                    0.00018,
                    -1.47257
                ]
            ],
            [
                [
                    -1.9855,
                    -0.29998,
                    0.0
                ],
                [
                    -0.35697,
                    -1.65688,
                    -0.0
                ],
                [
                    -0.00014,
                    -0.00018,
                    -1.47257
                ]
            ]
        ]
    },
    "band_gap": 4.0267,
    "is_direct": true,
    "formula": "Li4GeO4"
}