{
    "mp_id": "mp-4287",
    "nelements": 3,
    "nsites": 28,
    "elements": [
        "O",
        "Sn",
        "Sr"
    ],
    "structure": {
        "@module": "pymatgen.core.structure",
        "@class": "Structure",
        "charge": null,
        "lattice": {
            "matrix": [
                [
                    5.80160328,
                    0.0,
                    0.0
                ],
                [
                    0.0,
                    5.80160328,
                    0.0
                ],
                [
                    0.0,
                    0.0,
                    12.3838048
                ]
            ],
            "a": 5.80160328,
            "b": 5.80160328,
            "c": 12.3838048,
            "alpha": 90.0,
            "beta": 90.0,
            "gamma": 90.0,
            "volume": 416.821539900747
        },
        "sites": [
            {
                "species": [
                    {
                        "element": "Sr",
                        "occu": 1
                    }
                ],
                "abc": [
                    0.76457362,
                    0.26457362,
                    0.39663298
                ],
                "xyz": [
                    4.435752821593473,
                    1.5349511815934738,
                    4.911825401562305
                ],
                "label": "Sr",
                "properties": {}
            },
            {
                "species": [
                    {
                        "element": "Sr",
                        "occu": 1
                    }
                ],
                "abc": [
                    0.26457362,
                    0.23542638,
                    0.60336702
                ],
                "xyz": [
                    1.5349511815934738,
                    1.3658504584065263,
                    7.471979398437695
                ],
                "label": "Sr",
                "properties": {}
            },
            {
                "species": [
                    {
                        "element": "Sr",
                        "occu": 1
                    }
                ],
                "abc": [
                    0.73542638,
                    0.76457362,
                    0.60336702
                ],
                "xyz": [
                    4.266652098406527,
                    4.435752821593473,
                    7.471979398437695
                ],
                "label": "Sr",
                "properties": {}
            },
            {
                "species": [
                    {
                        "element": "Sr",
                        "occu": 1
                    }
                ],
                "abc": [
                    0.23542638,
                    0.73542638,
                    0.39663298
                ],
                "xyz": [
                    1.3658504584065263,
                    4.266652098406527,
                    4.911825401562305
                ],
                "label": "Sr",
                "properties": {}
            },
            {
                "species": [
                    {
                        "element": "Sr",
                        "occu": 1
                    }
                ],
                "abc": [
                    0.73542638,
                    0.23542638,
                    0.10336702
                ],
                "xyz": [
                    4.266652098406527,
                    1.3658504584065263,
                    1.280076998437696
                ],
                "label": "Sr",
                "properties": {}
            },
            {
                "species": [
                    {
                        "element": "Sr",
                        "occu": 1
                    }
                ],
                "abc": [
                    0.23542638,
                    0.26457362,
                    0.89663298
                ],
                "xyz": [
                    1.3658504584065263,
                    1.5349511815934738,
                    11.103727801562304
                ],
                "label": "Sr",
                "properties": {}
            },
            {
                "species": [
                    {
                        "element": "Sr",
                        "occu": 1
                    }
                ],
                "abc": [
                    0.76457362,
                    0.73542638,
                    0.89663298
                ],
                "xyz": [
                    4.435752821593473,
                    4.266652098406527,
                    11.103727801562304
                ],
                "label": "Sr",
                "properties": {}
            },
            {
                "species": [
                    {
                        "element": "Sr",
                        "occu": 1
                    }
                ],
                "abc": [
                    0.26457362,
                    0.76457362,
                    0.10336702
                ],
                "xyz": [
                    1.5349511815934738,
                    4.435752821593473,
                    1.280076998437696
                ],
                "label": "Sr",
                "properties": {}
            },
            {
                "species": [
                    {
                        "element": "Sn",
                        "occu": 1
                    }
                ],
                "abc": [
                    0.75,
                    0.25,
                    0.75
                ],
                "xyz": [
                    4.35120246,
                    1.45040082,
                    9.2878536
                ],
                "label": "Sn",
                "properties": {}
            },
            {
                "species": [
                    {
                        "element": "Sn",
                        "occu": 1
                    }
                ],
                "abc": [
                    0.25,
                    0.25,
                    0.25
                ],
                "xyz": [
                    1.45040082,
                    1.45040082,
                    3.0959512
                ],
                "label": "Sn",
                "properties": {}
            },
            {
                "species": [
                    {
                        "element": "Sn",
                        "occu": 1
                    }
                ],
                "abc": [
                    0.75,
                    0.75,
                    0.25
                ],
                "xyz": [
                    4.35120246,
                    4.35120246,
                    3.0959512
                ],
                "label": "Sn",
                "properties": {}
            },
            {
                "species": [
                    {
                        "element": "Sn",
                        "occu": 1
                    }
                ],
                "abc": [
                    0.25,
                    0.75,
                    0.75
                ],
                "xyz": [
                    1.45040082,
                    4.35120246,
                    9.2878536
                ],
                "label": "Sn",
                "properties": {}
            },
            {
                "species": [
                    {
                        "element": "O",
                        "occu": 1
                    }
                ],
                "abc": [
                    0.70640264,
                    0.20640264,
                    0.58608545
                ],
                "xyz": [
                    4.098267873224659,
                    1.1974662332246593,
                    7.25796780892016
                ],
                "label": "O",
                "properties": {}
            },
            {
                "species": [
                    {
                        "element": "O",
                        "occu": 1
                    }
                ],
                "abc": [
                    0.20640264,
                    0.29359736,
                    0.41391455
                ],
                "xyz": [
                    1.1974662332246593,
                    1.7033354067753408,
                    5.12583699107984
                ],
                "label": "O",
                "properties": {}
            },
            {
                "species": [
                    {
                        "element": "O",
                        "occu": 1
                    }
                ],
                "abc": [
                    0.79359736,
                    0.70640264,
                    0.41391455
                ],
                "xyz": [
                    4.6041370467753415,
                    4.098267873224659,
                    5.12583699107984
                ],
                "label": "O",
                "properties": {}
            },
            {
                "species": [
                    {
                        "element": "O",
                        "occu": 1
                    }
                ],
                "abc": [
                    0.29359736,
                    0.79359736,
                    0.58608545
                ],
                "xyz": [
                    1.7033354067753408,
                    4.6041370467753415,
                    7.25796780892016
                ],
                "label": "O",
                "properties": {}
            },
            {
                "species": [
                    {
                        "element": "O",
                        "occu": 1
                    }
                ],
                "abc": [
                    0.79359736,
                    0.29359736,
                    0.91391455
                ],
                "xyz": [
                    4.6041370467753415,
                    1.7033354067753408,
                    11.31773939107984
                ],
                "label": "O",
                "properties": {}
            },
            {
                "species": [
                    {
                        "element": "O",
                        "occu": 1
                    }
                ],
                "abc": [
                    0.29359736,
                    0.20640264,
                    0.08608545
                ],
                "xyz": [
                    1.7033354067753408,
                    1.1974662332246593,
                    1.06606540892016
                ],
                "label": "O",
                "properties": {}
            },
            {
                "species": [
                    {
                        "element": "O",
                        "occu": 1
                    }
                ],
                "abc": [
                    0.70640264,
                    0.79359736,
                    0.08608545
                ],
                "xyz": [
                    4.098267873224659,
                    4.6041370467753415,
                    1.06606540892016
                ],
                "label": "O",
                "properties": {}
            },
            {
                "species": [
                    {
                        "element": "O",
                        "occu": 1
                    }
                ],
                "abc": [
                    0.20640264,
                    0.70640264,
                    0.91391455
                ],
                "xyz": [
                    1.1974662332246593,
                    4.098267873224659,
                    11.31773939107984
                ],
                "label": "O",
                "properties": {}
            },
            {
                "species": [
                    {
                        "element": "O",
                        "occu": 1
                    }
                ],
                "abc": [
                    0.0,
                    0.0,
                    0.25
                ],
                "xyz": [
                    0.0,
                    0.0,
                    3.0959512
                ],
                "label": "O",
                "properties": {}
            },
            {
                "species": [
                    {
                        "element": "O",
                        "occu": 1
                    }
                ],
                "abc": [
                    0.5,
                    0.5,
                    0.75
                ],
                "xyz": [
                    2.90080164,
                    2.90080164,
                    9.2878536
                ],
                "label": "O",
                "properties": {}
            },
            {
                "species": [
                    {
                        "element": "O",
                        "occu": 1
                    }
                ],
                "abc": [
                    0.5,
                    0.5,
                    0.25
                ],
                "xyz": [
                    2.90080164,
                    2.90080164,
                    3.0959512
                ],
                "label": "O",
                "properties": {}
            },
            {
                "species": [
                    {
                        "element": "O",
                        "occu": 1
                    }
                ],
                "abc": [
                    0.0,
                    0.0,
                    0.75
                ],
                "xyz": [
                    0.0,
                    0.0,
                    9.2878536
                ],
                "label": "O",
                "properties": {}
            },
            {
                "species": [
                    {
                        "element": "O",
                        "occu": 1
                    }
                ],
                "abc": [
                    0.5,
                    0.0,
                    0.78027662
                ],
                "xyz": [
                    2.90080164,
                    0.0,
                    9.662793352083776
                ],
                "label": "O",
                "properties": {}
            },
            {
                "species": [
                    {
                        "element": "O",
                        "occu": 1
                    }
                ],
                "abc": [
                    0.0,
                    0.5,
                    0.21972338
                ],
                "xyz": [
                    0.0,
                    2.90080164,
                    2.721011447916224
                ],
                "label": "O",
                "properties": {}
            },
            {
                "species": [
                    {
                        "element": "O",
                        "occu": 1
                    }
                ],
                "abc": [
                    0.0,
                    0.5,
                    0.71972338
                ],
                "xyz": [
                    0.0,
                    2.90080164,
                    8.912913847916224
                ],
                "label": "O",
                "properties": {}
            },
            {
                "species": [
                    {
                        "element": "O",
                        "occu": 1
                    }
                ],
                "abc": [
                    0.5,
                    0.0,
                    0.28027662
                ],
                "xyz": [
                    2.90080164,
                    0.0,
                    3.4708909520837756
                ],
                "label": "O",
                "properties": {}
            }
        ]
    },
    "spacegroup": {
        "source": "spglib",
        "symbol": "P4_2/ncm",
        "number": 138,
        "point_group": "4/mmm",
        "crystal_system": "tetragonal",
        "hall": "P 4n 2ab -1n"
    },
    "dielectric": {
        "epsilon_ionic": [
            [
                11.94214617,
                -3e-08,
                1e-08
            ],
            [
                -3e-08,
                11.94208905,
                1e-08
            ],
            [
                1e-08,
                1e-08,
                7.48746285
            ]
        ],
        "epsilon_ionic_avg": 10.457232690000003,
        "epsilon_ionic_eig": [
            11.942146170015759,
            11.942089049984249,
            7.487462849999999
        ],
        "epsilon_electronic": [
            [
                3.91643172,
                0.0,
                0.0
            ],
            [
                0.0,
                3.91643172,
                0.0
            ],
            [
                0.0,
                -0.0,
                3.91477318
            ]
        ],
        "epsilon_electronic_avg": 3.9158788733333334,
        "epsilon_electronic_eig": [
            3.91643172,
            3.91643172,
            3.91477318
        ]
    },
    "phonon": {
        "lowest_freq": -0.019323990521428257,
        "frequency": [
            -0.019323990521428257,
            -0.010011814084336504,
            -0.010011814084336504,
            1.7283178461809034,
            1.7283178461809034,
            1.9353820335857859,
            1.9353820335857859,
            2.83343178369624,
            3.0657522775055592,
            3.105943696839333,
            3.105943696839333,
            3.2498788404604686,
            3.5121694091453084,
            3.693083464127822,
            3.693083464127822,
            3.717320704926633,
            3.7775577414896464,
            3.8831751397761667,
            3.8921030793009472,
            3.8921030793009472,
            3.9190105946226277,
            4.25885934895089,
            4.279616696618163,
            4.279616696618163,
            4.297514934624902,
            4.535679585115402,
            4.535679585115402,
            4.794012215419247,
            4.852376118721204,
            4.9220042790417455,
            4.934800586351034,
            4.934800586351034,
            5.06946801958523,
            5.3143155010561225,
            6.196231173957335,
            6.196231173957335,
            6.238192464560003,
            6.442200444162537,
            6.493049106980461,
            6.550574769739497,
            6.550574769739497,
            6.659302662613478,
            6.711245905653815,
            7.26058481720574,
            7.26058481720574,
            7.3550222392088465,
            7.3550222392088465,
            7.355382466120047,
            7.768314081363303,
            7.824169222597004,
            7.824169222597004,
            7.834657926326631,
            7.834657926326631,
            7.9823792180893225,
            8.143493734122204,
            8.143493734122204,
            9.802421612819474,
            9.827525023303481,
            9.83362149383996,
            9.965661177278431,
            10.288138431363082,
            10.301237263062928,
            10.339898892283315,
            10.65613877842745,
            10.83469578887141,
            11.101560710247666,
            11.101560710247666,
            12.00178892477872,
            14.753325047932265,
            14.753325047932265,
            16.15142390487186,
            16.15142390487186,
            16.272450753990167,
            16.272450753990167,
            16.337546782627285,
            16.957993950794727,
            17.73845939953073,
            18.15205234178809,
            18.15205234178809,
            18.739533076612624,
            19.99380801323196,
            19.99380801323196,
            22.18840308084196,
            22.18840308084196
        ]
    },
    "born_effective_charge": {
        "avg_abs_trace": 2.5432552380952385,
        "tensors": [
            [
                [
                    2.35247,
                    0.08073,
                    0.0321
                ],
                [
                    0.08072,
                    2.35247,
                    0.03211
                ],
                [
                    -0.01491,
                    -0.01491,
                    2.5778
                ]
            ],
            [
                [
                    2.35247,
                    -0.08073,
                    -0.0321
                ],
                [
                    -0.0805,
                    2.35276,
                    0.03174
                ],
                [
                    0.01503,
                    -0.01503,
                    2.5774
                ]
            ],
            [
                [
                    2.35279,
                    -0.08055,
                    0.03172
                ],
                [
                    -0.08072,
                    2.35247,
                    -0.03211
                ],
                [
                    -0.01503,
                    0.01503,
                    2.5774
                ]
            ],
            [
                [
                    2.35279,
                    0.08055,
                    -0.03172
                ],
                [
                    0.0805,
                    2.35276,
                    -0.03174
                ],
                [
                    0.01491,
                    0.01491,
                    2.5778
                ]
            ],
            [
                [
                    2.35279,
                    0.08055,
                    0.03172
                ],
                [
                    0.0805,
                    2.35276,
                    0.03174
                ],
                [
                    -0.01503,
                    -0.01503,
                    2.5774
                ]
            ],
            [
                [
                    2.35279,
                    -0.08055,
                    -0.03172
                ],
                [
                    -0.08072,
                    2.35247,
                    0.03211
                ],
                [
                    0.01491,
                    -0.01491,
                    2.5778
                ]
            ],
            [
                [
                    2.35247,
                    -0.08073,
                    0.0321
                ],
                [
                    -0.0805,
                    2.35276,
                    -0.03174
                ],
                [
                    -0.01491,
                    0.01491,
                    2.5778
                ]
            ],
            [
                [
                    2.35247,
                    0.08073,
                    -0.0321
                ],
                [
                    0.08072,
                    2.35247,
                    -0.03211
                ],
                [
                    0.01503,
                    0.01503,
                    2.5774
                ]
            ],
            [
                [
                    4.29997,
                    -0.0023,
                    -0.07536
                ],
                [
                    -0.0023,
                    4.29999,
                    -0.07536
                ],
                [
                    0.20529,
                    0.20529,
                    3.53853
                ]
            ],
            [
                [
                    4.29997,
                    0.0023,
                    0.07536
                ],
                [
                    0.0023,
                    4.29999,
                    -0.07536
                ],
                [
                    -0.20529,
                    0.20529,
                    3.53853
                ]
            ],
            [
                [
                    4.29997,
                    0.0023,
                    -0.07536
                ],
                [
                    0.0023,
                    4.29999,
                    0.07536
                ],
                [
                    0.20529,
                    -0.20529,
                    3.53853
                ]
            ],
            [
                [
                    4.29997,
                    -0.0023,
                    0.07536
                ],
                [
                    -0.0023,
                    4.29999,
                    0.07536
                ],
                [
                    -0.20529,
                    -0.20529,
                    3.53853
                ]
            ],
            [
                [
                    -1.95851,
                    0.01403,
                    0.00713
                ],
                [
                    0.01403,
                    -1.95852,
                    0.00713
                ],
                [
                    0.0355,
                    0.0355,
                    -2.68331
                ]
            ],
            [
                [
                    -1.95851,
                    -0.01403,
                    -0.00713
                ],
                [
                    -0.01394,
                    -1.95864,
                    0.00728
                ],
                [
                    -0.0356,
                    0.0356,
                    -2.68322
                ]
            ],
            [
                [
                    -1.95866,
                    -0.01394,
                    0.00728
                ],
                [
                    -0.01403,
                    -1.95852,
                    -0.00713
                ],
                [
                    0.0356,
                    -0.0356,
                    -2.68322
                ]
            ],
            [
                [
                    -1.95866,
                    0.01394,
                    -0.00728
                ],
                [
                    0.01394,
                    -1.95864,
                    -0.00728
                ],
                [
                    -0.0355,
                    -0.0355,
                    -2.68331
                ]
            ],
            [
                [
                    -1.95866,
                    0.01394,
                    0.00728
                ],
                [
                    0.01394,
                    -1.95864,
                    0.00728
                ],
                [
                    0.0356,
                    0.0356,
                    -2.68322
                ]
            ],
            [
                [
                    -1.95866,
                    -0.01394,
                    -0.00728
                ],
                [
                    -0.01403,
                    -1.95852,
                    0.00713
                ],
                [
                    -0.0355,
                    0.0355,
                    -2.68331
                ]
            ],
            [
                [
                    -1.95851,
                    -0.01403,
                    0.00713
                ],
                [
                    -0.01394,
                    -1.95864,
                    -0.00728
                ],
                [
                    0.0355,
                    -0.0355,
                    -2.68331
                ]
            ],
            [
                [
                    -1.95851,
                    0.01403,
                    -0.00713
                ],
                [
                    0.01403,
                    -1.95852,
                    -0.00713
                ],
                [
                    -0.0356,
                    -0.0356,
                    -2.68322
                ]
            ],
            [
                [
                    -2.55025,
                    -0.66367,
                    0.00022
                ],
                [
                    -0.66366,
                    -2.55025,
                    -0.00023
                ],
                [
                    0.0,
                    -0.0,
                    -1.63712
                ]
            ],
            [
                [
                    -2.55025,
                    0.66367,
                    -0.00022
                ],
                [
                    0.66366,
                    -2.55025,
                    0.00023
                ],
                [
                    0.0,
                    -0.0,
                    -1.63712
                ]
            ],
            [
                [
                    -2.55025,
                    -0.66367,
                    -0.00022
                ],
                [
                    -0.66366,
                    -2.55025,
                    0.00023
                ],
                [
                    0.0,
                    -0.0,
                    -1.63712
                ]
            ],
            [
                [
                    -2.55025,
                    0.66367,
                    0.00022
                ],
                [
                    0.66366,
                    -2.55025,
                    -0.00023
                ],
                [
                    0.0,
                    -0.0,
                    -1.63712
                ]
            ],
            [
                [
                    -2.53782,
                    -0.57241,
                    -0.00031
                ],
                [
                    -0.5724,
                    -2.53781,
                    -0.00029
                ],
                [
                    0.0,
                    -0.0,
                    -1.69019
                ]
            ],
            [
                [
                    -2.53782,
                    0.57241,
                    0.00031
                ],
                [
                    0.5724,
                    -2.53781,
                    0.00029
                ],
                [
                    0.0,
                    -0.0,
                    -1.68995
                ]
            ],
            [
                [
                    -2.53782,
                    -0.57241,
                    0.00031
                ],
                [
                    -0.5724,
                    -2.53781,
                    0.00029
                ],
                [
                    0.0,
                    -0.0,
                    -1.68995
                ]
            ],
            [
                [
                    -2.53782,
                    0.57241,
                    -0.00031
                ],
                [
                    0.5724,
                    -2.53781,
                    -0.00029
                ],
                [
                    0.0,
                    -0.0,
                    -1.69019
                ]
            ]
        ]
    },
    "band_gap": 2.8569,
    "is_direct": false,
    "formula": "Sr2SnO4"
}