{
    "mp_id": "mp-4387",
    "nelements": 3,
    "nsites": 20,
    "elements": [
        "O",
        "Sr",
        "Zr"
    ],
    "structure": {
        "@module": "pymatgen.core.structure",
        "@class": "Structure",
        "charge": null,
        "lattice": {
            "matrix": [
                [
                    5.8607458,
                    0.0,
                    0.0
                ],
                [
                    0.0,
                    8.21756709,
                    0.0
                ],
                [
                    0.0,
                    0.0,
                    5.79325435
                ]
            ],
            "a": 5.8607458,
            "b": 8.21756709,
            "c": 5.79325435,
            "alpha": 90.0,
            "beta": 90.0,
            "gamma": 90.0,
            "volume": 279.0093387577792
        },
        "sites": [
            {
                "species": [
                    {
                        "element": "Sr",
                        "occu": 1
                    }
                ],
                "abc": [
                    0.53435758,
                    0.25,
                    0.00828878
                ],
                "xyz": [
                    3.131733942683164,
                    2.0543917725,
                    0.048019010791193
                ],
                "label": "Sr",
                "properties": {}
            },
            {
                "species": [
                    {
                        "element": "Sr",
                        "occu": 1
                    }
                ],
                "abc": [
                    0.96564242,
                    0.75,
                    0.50828878
                ],
                "xyz": [
                    5.659384757316836,
                    6.1631753174999995,
                    2.9446461857911927
                ],
                "label": "Sr",
                "properties": {}
            },
            {
                "species": [
                    {
                        "element": "Sr",
                        "occu": 1
                    }
                ],
                "abc": [
                    0.03435758,
                    0.25,
                    0.49171122
                ],
                "xyz": [
                    0.201361042683164,
                    2.0543917725,
                    2.848608164208807
                ],
                "label": "Sr",
                "properties": {}
            },
            {
                "species": [
                    {
                        "element": "Sr",
                        "occu": 1
                    }
                ],
                "abc": [
                    0.46564242,
                    0.75,
                    0.99171122
                ],
                "xyz": [
                    2.729011857316836,
                    6.1631753174999995,
                    5.745235339208807
                ],
                "label": "Sr",
                "properties": {}
            },
            {
                "species": [
                    {
                        "element": "Zr",
                        "occu": 1
                    }
                ],
                "abc": [
                    0.0,
                    0.0,
                    0.0
                ],
                "xyz": [
                    0.0,
                    0.0,
                    0.0
                ],
                "label": "Zr",
                "properties": {}
            },
            {
                "species": [
                    {
                        "element": "Zr",
                        "occu": 1
                    }
                ],
                "abc": [
                    0.5,
                    0.0,
                    0.5
                ],
                "xyz": [
                    2.9303729,
                    0.0,
                    2.896627175
                ],
                "label": "Zr",
                "properties": {}
            },
            {
                "species": [
                    {
                        "element": "Zr",
                        "occu": 1
                    }
                ],
                "abc": [
                    0.5,
                    0.5,
                    0.5
                ],
                "xyz": [
                    2.9303729,
                    4.108783545,
                    2.896627175
                ],
                "label": "Zr",
                "properties": {}
            },
            {
                "species": [
                    {
                        "element": "Zr",
                        "occu": 1
                    }
                ],
                "abc": [
                    0.0,
                    0.5,
                    0.0
                ],
                "xyz": [
                    0.0,
                    4.108783545,
                    0.0
                ],
                "label": "Zr",
                "properties": {}
            },
            {
                "species": [
                    {
                        "element": "O",
                        "occu": 1
                    }
                ],
                "abc": [
                    0.28737363,
                    0.45719513,
                    0.21219328
                ],
                "xyz": [
                    1.684223795053254,
                    3.7570316539962714,
                    1.229289642400768
                ],
                "label": "O",
                "properties": {}
            },
            {
                "species": [
                    {
                        "element": "O",
                        "occu": 1
                    }
                ],
                "abc": [
                    0.21262637,
                    0.54280487,
                    0.71219328
                ],
                "xyz": [
                    1.2461491049467461,
                    4.4605354360037275,
                    4.125916817400768
                ],
                "label": "O",
                "properties": {}
            },
            {
                "species": [
                    {
                        "element": "O",
                        "occu": 1
                    }
                ],
                "abc": [
                    0.78737363,
                    0.04280487,
                    0.28780672
                ],
                "xyz": [
                    4.614596695053255,
                    0.3517518910037283,
                    1.6673375325992321
                ],
                "label": "O",
                "properties": {}
            },
            {
                "species": [
                    {
                        "element": "O",
                        "occu": 1
                    }
                ],
                "abc": [
                    0.71262637,
                    0.95719513,
                    0.78780672
                ],
                "xyz": [
                    4.1765220049467455,
                    7.8658151989962715,
                    4.563964707599232
                ],
                "label": "O",
                "properties": {}
            },
            {
                "species": [
                    {
                        "element": "O",
                        "occu": 1
                    }
                ],
                "abc": [
                    0.71262637,
                    0.54280487,
                    0.78780672
                ],
                "xyz": [
                    4.1765220049467455,
                    4.4605354360037275,
                    4.563964707599232
                ],
                "label": "O",
                "properties": {}
            },
            {
                "species": [
                    {
                        "element": "O",
                        "occu": 1
                    }
                ],
                "abc": [
                    0.78737363,
                    0.45719513,
                    0.28780672
                ],
                "xyz": [
                    4.614596695053255,
                    3.7570316539962714,
                    1.6673375325992321
                ],
                "label": "O",
                "properties": {}
            },
            {
                "species": [
                    {
                        "element": "O",
                        "occu": 1
                    }
                ],
                "abc": [
                    0.21262637,
                    0.95719513,
                    0.71219328
                ],
                "xyz": [
                    1.2461491049467461,
                    7.8658151989962715,
                    4.125916817400768
                ],
                "label": "O",
                "properties": {}
            },
            {
                "species": [
                    {
                        "element": "O",
                        "occu": 1
                    }
                ],
                "abc": [
                    0.28737363,
                    0.04280487,
                    0.21219328
                ],
                "xyz": [
                    1.684223795053254,
                    0.3517518910037283,
                    1.229289642400768
                ],
                "label": "O",
                "properties": {}
            },
            {
                "species": [
                    {
                        "element": "O",
                        "occu": 1
                    }
                ],
                "abc": [
                    0.97733356,
                    0.25,
                    0.91948066
                ],
                "xyz": [
                    5.727903556969048,
                    2.0543917725,
                    5.32678533328587
                ],
                "label": "O",
                "properties": {}
            },
            {
                "species": [
                    {
                        "element": "O",
                        "occu": 1
                    }
                ],
                "abc": [
                    0.52266644,
                    0.75,
                    0.41948066
                ],
                "xyz": [
                    3.063215143030952,
                    6.1631753174999995,
                    2.430158158285871
                ],
                "label": "O",
                "properties": {}
            },
            {
                "species": [
                    {
                        "element": "O",
                        "occu": 1
                    }
                ],
                "abc": [
                    0.47733356,
                    0.25,
                    0.58051934
                ],
                "xyz": [
                    2.797530656969048,
                    2.0543917725,
                    3.363096191714129
                ],
                "label": "O",
                "properties": {}
            },
            {
                "species": [
                    {
                        "element": "O",
                        "occu": 1
                    }
                ],
                "abc": [
                    0.02266644,
                    0.75,
                    0.08051934
                ],
                "xyz": [
                    0.132842243030952,
                    6.1631753174999995,
                    0.46646901671412894
                ],
                "label": "O",
                "properties": {}
            }
        ]
    },
    "spacegroup": {
        "source": "spglib",
        "symbol": "Pnma",
        "number": 62,
        "point_group": "mmm",
        "crystal_system": "orthorhombic",
        "hall": "-P 2ac 2n"
    },
    "dielectric": {
        "epsilon_ionic": [
            [
                20.32012548,
                1e-08,
                1.1e-07
            ],
            [
                1e-08,
                21.94007991,
                4e-08
            ],
            [
                1.1e-07,
                4e-08,
                18.68562747
            ]
        ],
        "epsilon_ionic_avg": 20.315277620000003,
        "epsilon_ionic_eig": [
            20.32012548,
            18.68562747,
            21.94007991000001
        ],
        "epsilon_electronic": [
            [
                4.3941729,
                0.0,
                0.0
            ],
            [
                0.0,
                4.3678981,
                0.0
            ],
            [
                -0.0,
                0.0,
                4.41686984
            ]
        ],
        "epsilon_electronic_avg": 4.39298028,
        "epsilon_electronic_eig": [
            4.3941729,
            4.3678981,
            4.41686984
        ]
    },
    "phonon": {
        "lowest_freq": -0.056094462819782046,
        "frequency": [
            -0.056094462819782046,
            -0.04001057799827058,
            -0.02650564188981706,
            2.843067900391055,
            2.9637290222020174,
            2.971777105485868,
            3.1967674175823797,
            3.2890916858480748,
            3.4531197747842044,
            3.610616869750759,
            3.7772716202738166,
            3.898392061254229,
            4.1870710628870125,
            4.193747588479161,
            4.367767209400601,
            4.411160546745576,
            4.477420012778211,
            4.5972192936796725,
            4.617378609132113,
            4.7123992496929805,
            5.3437340497979555,
            5.953491978462443,
            6.320953011011778,
            6.3852895499739475,
            6.68146622361355,
            6.8624873128686215,
            7.074021166646119,
            7.603315307498621,
            7.650628904223394,
            7.662212294600007,
            7.834760665535253,
            7.923018345509157,
            8.312416302572776,
            8.453951211199634,
            8.547711413527047,
            9.484364508412009,
            9.619671771013392,
            9.790897173438605,
            9.809678534957355,
            10.027480879071394,
            10.071013190152593,
            10.948839045033164,
            11.20658753962194,
            11.585350925706447,
            11.61379388144093,
            11.902122747284546,
            12.709868555346358,
            13.73262873817479,
            15.153277115249349,
            15.193467748877943,
            15.468529314755214,
            15.617490111150685,
            15.723318051131015,
            15.932233250277818,
            16.46154312771125,
            16.478960785256533,
            16.629508262312548,
            21.098791430194495,
            22.21303308352984,
            22.926967067618396
        ]
    },
    "born_effective_charge": {
        "avg_abs_trace": 3.201061,
        "tensors": [
            [
                [
                    2.46004,
                    0.0,
                    -0.14046
                ],
                [
                    -2e-05,
                    2.42278,
                    5e-05
                ],
                [
                    -0.12383,
                    0.0,
                    2.54431
                ]
            ],
            [
                [
                    2.46024,
                    0.0,
                    0.14003
                ],
                [
                    2e-05,
                    2.42278,
                    5e-05
                ],
                [
                    0.12383,
                    0.0,
                    2.54431
                ]
            ],
            [
                [
                    2.46004,
                    0.0,
                    0.14046
                ],
                [
                    -2e-05,
                    2.42278,
                    -5e-05
                ],
                [
                    0.12371,
                    0.0,
                    2.54412
                ]
            ],
            [
                [
                    2.46024,
                    0.0,
                    -0.14003
                ],
                [
                    2e-05,
                    2.42278,
                    -5e-05
                ],
                [
                    -0.12371,
                    0.0,
                    2.54412
                ]
            ],
            [
                [
                    5.51573,
                    -0.08294,
                    -0.16354
                ],
                [
                    -0.15865,
                    5.53187,
                    -0.29433
                ],
                [
                    0.28262,
                    0.4511,
                    5.53322
                ]
            ],
            [
                [
                    5.51573,
                    -0.08294,
                    0.16354
                ],
                [
                    -0.15865,
                    5.53187,
                    0.29433
                ],
                [
                    -0.28262,
                    -0.4511,
                    5.53322
                ]
            ],
            [
                [
                    5.51573,
                    0.08294,
                    0.16354
                ],
                [
                    0.15865,
                    5.53187,
                    -0.29433
                ],
                [
                    -0.28262,
                    0.4511,
                    5.53322
                ]
            ],
            [
                [
                    5.51573,
                    0.08294,
                    -0.16354
                ],
                [
                    0.15865,
                    5.53187,
                    0.29433
                ],
                [
                    0.28262,
                    -0.4511,
                    5.53322
                ]
            ],
            [
                [
                    -3.0993,
                    0.07447,
                    -1.19787
                ],
                [
                    0.08587,
                    -1.85773,
                    -0.00334
                ],
                [
                    -1.1677,
                    -0.00237,
                    -3.04058
                ]
            ],
            [
                [
                    -3.09925,
                    0.07415,
                    1.19815
                ],
                [
                    0.08575,
                    -1.85774,
                    0.00328
                ],
                [
                    1.1677,
                    0.00237,
                    -3.04058
                ]
            ],
            [
                [
                    -3.0993,
                    -0.07447,
                    1.19787
                ],
                [
                    -0.08575,
                    -1.85774,
                    -0.00328
                ],
                [
                    1.16757,
                    -0.00298,
                    -3.04057
                ]
            ],
            [
                [
                    -3.09925,
                    -0.07415,
                    -1.19815
                ],
                [
                    -0.08587,
                    -1.85773,
                    0.00334
                ],
                [
                    -1.16757,
                    0.00298,
                    -3.04057
                ]
            ],
            [
                [
                    -3.09925,
                    0.07415,
                    -1.19815
                ],
                [
                    0.08575,
                    -1.85774,
                    -0.00328
                ],
                [
                    -1.16757,
                    -0.00298,
                    -3.04057
                ]
            ],
            [
                [
                    -3.0993,
                    0.07447,
                    1.19787
                ],
                [
                    0.08587,
                    -1.85773,
                    0.00334
                ],
                [
                    1.16757,
                    0.00298,
                    -3.04057
                ]
            ],
            [
                [
                    -3.09925,
                    -0.07415,
                    1.19815
                ],
                [
                    -0.08587,
                    -1.85773,
                    -0.00334
                ],
                [
                    1.1677,
                    -0.00237,
                    -3.04058
                ]
            ],
            [
                [
                    -3.0993,
                    -0.07447,
                    -1.19787
                ],
                [
                    -0.08575,
                    -1.85774,
                    0.00328
                ],
                [
                    -1.1677,
                    0.00237,
                    -3.04058
                ]
            ],
            [
                [
                    -1.77727,
                    0.0,
                    0.09181
                ],
                [
                    3e-05,
                    -4.23918,
                    7e-05
                ],
                [
                    0.034,
                    0.0,
                    -1.99619
                ]
            ],
            [
                [
                    -1.77737,
                    0.0,
                    -0.09153
                ],
                [
                    -3e-05,
                    -4.23918,
                    7e-05
                ],
                [
                    -0.034,
                    0.0,
                    -1.99619
                ]
            ],
            [
                [
                    -1.77727,
                    0.0,
                    -0.09181
                ],
                [
                    3e-05,
                    -4.23918,
                    -7e-05
                ],
                [
                    -0.0337,
                    0.0,
                    -1.99639
                ]
            ],
            [
                [
                    -1.77737,
                    0.0,
                    0.09153
                ],
                [
                    -3e-05,
                    -4.23918,
                    -7e-05
                ],
                [
                    0.0337,
                    0.0,
                    -1.99639
                ]
            ]
        ]
    },
    "band_gap": 4.186299999999999,
    "is_direct": false,
    "formula": "SrZrO3"
}