{
    "mp_id": "mp-4421",
    "nelements": 3,
    "nsites": 24,
    "elements": [
        "La",
        "O",
        "Ta"
    ],
    "structure": {
        "@module": "pymatgen.core.structure",
        "@class": "Structure",
        "charge": null,
        "lattice": {
            "matrix": [
                [
                    7.66586906,
                    0.0,
                    6.27e-05
                ],
                [
                    0.0,
                    5.551878,
                    0.0
                ],
                [
                    -1.48389742,
                    0.0,
                    7.65581755
                ]
            ],
            "a": 7.665869060256416,
            "b": 5.551878,
            "c": 7.798300706690571,
            "alpha": 90.0,
            "beta": 100.96893161781091,
            "gamma": 90.0,
            "volume": 325.8318801569712
        },
        "sites": [
            {
                "species": [
                    {
                        "element": "La",
                        "occu": 1
                    }
                ],
                "abc": [
                    0.65328131,
                    0.77282039,
                    0.90120497
                ],
                "xyz": [
                    3.670673251931092,
                    4.29060452119242,
                    6.899501786211361
                ],
                "label": "La",
                "properties": {}
            },
            {
                "species": [
                    {
                        "element": "La",
                        "occu": 1
                    }
                ],
                "abc": [
                    0.34671869,
                    0.27282039,
                    0.59879503
                ],
                "xyz": [
                    1.7693496780689086,
                    1.5146655211924203,
                    4.584287238788639
                ],
                "label": "La",
                "properties": {}
            },
            {
                "species": [
                    {
                        "element": "La",
                        "occu": 1
                    }
                ],
                "abc": [
                    0.34671869,
                    0.22717961,
                    0.09879503
                ],
                "xyz": [
                    2.5112983880689086,
                    1.2612734788075801,
                    0.7563784637886396
                ],
                "label": "La",
                "properties": {}
            },
            {
                "species": [
                    {
                        "element": "La",
                        "occu": 1
                    }
                ],
                "abc": [
                    0.65328131,
                    0.72717961,
                    0.40120497
                ],
                "xyz": [
                    4.412621961931092,
                    4.0372124788075805,
                    3.0715930112113603
                ],
                "label": "La",
                "properties": {}
            },
            {
                "species": [
                    {
                        "element": "Ta",
                        "occu": 1
                    }
                ],
                "abc": [
                    0.83226509,
                    0.26705638,
                    0.69873092
                ],
                "xyz": [
                    5.3431901936868895,
                    1.48266444088164,
                    5.3494086230847895
                ],
                "label": "Ta",
                "properties": {}
            },
            {
                "species": [
                    {
                        "element": "Ta",
                        "occu": 1
                    }
                ],
                "abc": [
                    0.16773491,
                    0.76705638,
                    0.80126908
                ],
                "xyz": [
                    0.09683273631311096,
                    4.2586034408816404,
                    6.134380401915211
                ],
                "label": "Ta",
                "properties": {}
            },
            {
                "species": [
                    {
                        "element": "Ta",
                        "occu": 1
                    }
                ],
                "abc": [
                    0.16773491,
                    0.73294362,
                    0.30126908
                ],
                "xyz": [
                    0.8387814463131109,
                    4.06921355911836,
                    2.3064716269152115
                ],
                "label": "Ta",
                "properties": {}
            },
            {
                "species": [
                    {
                        "element": "Ta",
                        "occu": 1
                    }
                ],
                "abc": [
                    0.83226509,
                    0.23294362,
                    0.19873092
                ],
                "xyz": [
                    6.0851389036868895,
                    1.29327455911836,
                    1.5214998480847892
                ],
                "label": "Ta",
                "properties": {}
            },
            {
                "species": [
                    {
                        "element": "O",
                        "occu": 1
                    }
                ],
                "abc": [
                    0.66448201,
                    0.4939428,
                    0.13439561
                ],
                "xyz": [
                    4.894402782447284,
                    2.7423101645784,
                    1.0289499327029825
                ],
                "label": "O",
                "properties": {}
            },
            {
                "species": [
                    {
                        "element": "O",
                        "occu": 1
                    }
                ],
                "abc": [
                    0.33551799,
                    0.9939428,
                    0.36560439
                ],
                "xyz": [
                    2.0295175675527153,
                    5.518249164578401,
                    2.7990215422970173
                ],
                "label": "O",
                "properties": {}
            },
            {
                "species": [
                    {
                        "element": "O",
                        "occu": 1
                    }
                ],
                "abc": [
                    0.33551799,
                    0.5060572,
                    0.86560439
                ],
                "xyz": [
                    1.2875688575527156,
                    2.8095678354216003,
                    6.626930317297018
                ],
                "label": "O",
                "properties": {}
            },
            {
                "species": [
                    {
                        "element": "O",
                        "occu": 1
                    }
                ],
                "abc": [
                    0.66448201,
                    0.0060572,
                    0.63439561
                ],
                "xyz": [
                    4.152454072447284,
                    0.03362883542160001,
                    4.856858707702982
                ],
                "label": "O",
                "properties": {}
            },
            {
                "species": [
                    {
                        "element": "O",
                        "occu": 1
                    }
                ],
                "abc": [
                    0.61684898,
                    0.01610019,
                    0.16876112
                ],
                "xyz": [
                    4.478259319910248,
                    0.08938629065682001,
                    1.292043020684702
                ],
                "label": "O",
                "properties": {}
            },
            {
                "species": [
                    {
                        "element": "O",
                        "occu": 1
                    }
                ],
                "abc": [
                    0.38315102,
                    0.51610019,
                    0.33123888
                ],
                "xyz": [
                    2.445661030089752,
                    2.86532529065682,
                    2.5359284543152985
                ],
                "label": "O",
                "properties": {}
            },
            {
                "species": [
                    {
                        "element": "O",
                        "occu": 1
                    }
                ],
                "abc": [
                    0.38315102,
                    0.98389981,
                    0.83123888
                ],
                "xyz": [
                    1.703712320089752,
                    5.462491709343181,
                    6.363837229315298
                ],
                "label": "O",
                "properties": {}
            },
            {
                "species": [
                    {
                        "element": "O",
                        "occu": 1
                    }
                ],
                "abc": [
                    0.61684898,
                    0.48389981,
                    0.66876112
                ],
                "xyz": [
                    3.7363106099102485,
                    2.68655270934318,
                    5.1199517956847025
                ],
                "label": "O",
                "properties": {}
            },
            {
                "species": [
                    {
                        "element": "O",
                        "occu": 1
                    }
                ],
                "abc": [
                    0.8305109,
                    0.15885702,
                    0.94642551
                ],
                "xyz": [
                    4.962189439791571,
                    0.88195479448356,
                    7.24571310225913
                ],
                "label": "O",
                "properties": {}
            },
            {
                "species": [
                    {
                        "element": "O",
                        "occu": 1
                    }
                ],
                "abc": [
                    0.1694891,
                    0.65885702,
                    0.55357449
                ],
                "xyz": [
                    0.47783349020843036,
                    3.6578937944835603,
                    4.23807592274087
                ],
                "label": "O",
                "properties": {}
            },
            {
                "species": [
                    {
                        "element": "O",
                        "occu": 1
                    }
                ],
                "abc": [
                    0.1694891,
                    0.84114298,
                    0.05357449
                ],
                "xyz": [
                    1.2197822002084304,
                    4.66992320551644,
                    0.41016714774086954
                ],
                "label": "O",
                "properties": {}
            },
            {
                "species": [
                    {
                        "element": "O",
                        "occu": 1
                    }
                ],
                "abc": [
                    0.8305109,
                    0.34114298,
                    0.44642551
                ],
                "xyz": [
                    5.704138149791571,
                    1.89398420551644,
                    3.4178043272591307
                ],
                "label": "O",
                "properties": {}
            },
            {
                "species": [
                    {
                        "element": "O",
                        "occu": 1
                    }
                ],
                "abc": [
                    0.94562474,
                    0.58462467,
                    0.79314918
                ],
                "xyz": [
                    6.07208341485943,
                    3.2457648436302597,
                    6.072264702683307
                ],
                "label": "O",
                "properties": {}
            },
            {
                "species": [
                    {
                        "element": "O",
                        "occu": 1
                    }
                ],
                "abc": [
                    0.05437526,
                    0.08462467,
                    0.70685082
                ],
                "xyz": [
                    -0.6320604848594288,
                    0.46982584363026003,
                    5.411524322316693
                ],
                "label": "O",
                "properties": {}
            },
            {
                "species": [
                    {
                        "element": "O",
                        "occu": 1
                    }
                ],
                "abc": [
                    0.05437526,
                    0.41537533,
                    0.20685082
                ],
                "xyz": [
                    0.10988822514057128,
                    2.30611315636974,
                    1.5836155473166929
                ],
                "label": "O",
                "properties": {}
            },
            {
                "species": [
                    {
                        "element": "O",
                        "occu": 1
                    }
                ],
                "abc": [
                    0.94562474,
                    0.91537533,
                    0.29314918
                ],
                "xyz": [
                    6.8140321248594296,
                    5.08205215636974,
                    2.244355927683307
                ],
                "label": "O",
                "properties": {}
            }
        ]
    },
    "spacegroup": {
        "source": "spglib",
        "symbol": "P2_1/c",
        "number": 14,
        "point_group": "2/m",
        "crystal_system": "monoclinic",
        "hall": "-P 2ybc"
    },
    "dielectric": {
        "epsilon_ionic": [
            [
                21.66604069,
                0.0,
                0.77176292
            ],
            [
                0.0,
                18.62455331,
                -0.0
            ],
            [
                0.77176292,
                -0.0,
                25.35289401
            ]
        ],
        "epsilon_ionic_avg": 21.88116267,
        "epsilon_ionic_eig": [
            21.5110079795134,
            25.507926720486598,
            18.62455331
        ],
        "epsilon_electronic": [
            [
                4.82494585,
                0.0,
                0.02878766
            ],
            [
                0.0,
                5.07328483,
                0.0
            ],
            [
                0.02874787,
                0.0,
                5.03558658
            ]
        ],
        "epsilon_electronic_avg": 4.977939086666667,
        "epsilon_electronic_eig": [
            4.8210876310605775,
            5.039444798939423,
            5.07328483
        ]
    },
    "phonon": {
        "lowest_freq": -0.05971107128579291,
        "frequency": [
            -0.05971107128579291,
            -0.0390974969071137,
            -0.022604245530656198,
            1.8782032889518838,
            2.2081910079129554,
            2.314213372664681,
            2.8290160142096092,
            2.861419876817983,
            3.2810033377031003,
            3.6327608940667417,
            3.6587829946488584,
            3.676206307096279,
            3.753195614922328,
            3.842174982992349,
            3.9416288790106893,
            4.1211607517108,
            4.554037118329421,
            4.7765136550975935,
            4.838505276865239,
            5.20799846094422,
            5.241712858545905,
            5.504855963611271,
            5.897341916235857,
            5.9523948976015415,
            6.059202474490575,
            6.463954767334452,
            6.497128388584823,
            6.902028454907624,
            7.640975216708753,
            7.748404173543128,
            8.104901307486172,
            8.161433368555938,
            8.302274987006369,
            8.467576025387705,
            8.545506564404143,
            8.63901299961665,
            8.97675701126425,
            9.354938787189592,
            9.553020722434733,
            9.604945432317349,
            9.750757475655345,
            10.2131264542027,
            10.267031506622985,
            10.70635194414629,
            10.781117630200246,
            10.856560559331077,
            11.317164776042954,
            11.550798996515365,
            12.024844335408993,
            12.67410719957987,
            12.72120053725865,
            12.733381196378177,
            13.249057629506144,
            13.296579355846688,
            13.939445812916983,
            14.949137421720623,
            15.022367928876271,
            15.281721799616426,
            15.86001361836108,
            16.69673079674586,
            17.029469677165686,
            17.221923136693114,
            17.262171937056916,
            17.796665835067042,
            18.374838776951528,
            18.42434763422191,
            18.66891045575018,
            18.770004890252004,
            21.000056823153603,
            23.735459375425442,
            24.182030066586226,
            24.998923016666286
        ]
    },
    "born_effective_charge": {
        "avg_abs_trace": 3.7726791666666664,
        "tensors": [
            [
                [
                    4.03316,
                    -0.32854,
                    -0.11732
                ],
                [
                    -0.00255,
                    4.57978,
                    -0.08363
                ],
                [
                    -0.11423,
                    -0.00909,
                    4.31712
                ]
            ],
            [
                [
                    4.03335,
                    0.32831,
                    -0.11727
                ],
                [
                    0.00255,
                    4.57978,
                    0.08363
                ],
                [
                    -0.11408,
                    0.00893,
                    4.3171
                ]
            ],
            [
                [
                    4.03335,
                    -0.32831,
                    -0.11727
                ],
                [
                    -0.00238,
                    4.57968,
                    -0.08385
                ],
                [
                    -0.11408,
                    -0.00893,
                    4.3171
                ]
            ],
            [
                [
                    4.03316,
                    0.32854,
                    -0.11732
                ],
                [
                    0.00238,
                    4.57968,
                    0.08385
                ],
                [
                    -0.11423,
                    0.00909,
                    4.31712
                ]
            ],
            [
                [
                    6.7334,
                    0.333,
                    0.16016
                ],
                [
                    -0.44652,
                    6.9412,
                    0.07388
                ],
                [
                    0.13676,
                    -0.85239,
                    7.34948
                ]
            ],
            [
                [
                    6.73355,
                    -0.33289,
                    0.16006
                ],
                [
                    0.44652,
                    6.9412,
                    -0.07388
                ],
                [
                    0.13664,
                    0.85242,
                    7.34951
                ]
            ],
            [
                [
                    6.73355,
                    0.33289,
                    0.16006
                ],
                [
                    -0.44654,
                    6.94089,
                    0.07377
                ],
                [
                    0.13664,
                    -0.85242,
                    7.34951
                ]
            ],
            [
                [
                    6.7334,
                    -0.333,
                    0.16016
                ],
                [
                    0.44654,
                    6.94089,
                    -0.07377
                ],
                [
                    0.13676,
                    0.85239,
                    7.34948
                ]
            ],
            [
                [
                    -2.31566,
                    0.88803,
                    -0.15937
                ],
                [
                    0.93953,
                    -3.28041,
                    0.59252
                ],
                [
                    -0.17627,
                    0.5736,
                    -2.5621
                ]
            ],
            [
                [
                    -2.31564,
                    -0.88796,
                    -0.1595
                ],
                [
                    -0.93953,
                    -3.28041,
                    -0.59252
                ],
                [
                    -0.17608,
                    -0.57314,
                    -2.56183
                ]
            ],
            [
                [
                    -2.31564,
                    0.88796,
                    -0.1595
                ],
                [
                    0.93953,
                    -3.28064,
                    0.59254
                ],
                [
                    -0.17608,
                    0.57314,
                    -2.56183
                ]
            ],
            [
                [
                    -2.31566,
                    -0.88803,
                    -0.15937
                ],
                [
                    -0.93953,
                    -3.28064,
                    -0.59254
                ],
                [
                    -0.17627,
                    -0.5736,
                    -2.5621
                ]
            ],
            [
                [
                    -3.41091,
                    -0.3535,
                    -0.29058
                ],
                [
                    -0.45062,
                    -2.85845,
                    0.18591
                ],
                [
                    -0.20875,
                    0.18249,
                    -2.25538
                ]
            ],
            [
                [
                    -3.41084,
                    0.35359,
                    -0.29051
                ],
                [
                    0.45062,
                    -2.85845,
                    -0.18591
                ],
                [
                    -0.20849,
                    -0.18277,
                    -2.25543
                ]
            ],
            [
                [
                    -3.41084,
                    -0.35359,
                    -0.29051
                ],
                [
                    -0.45086,
                    -2.85828,
                    0.18588
                ],
                [
                    -0.20849,
                    0.18277,
                    -2.25543
                ]
            ],
            [
                [
                    -3.41091,
                    0.3535,
                    -0.29058
                ],
                [
                    0.45086,
                    -2.85828,
                    -0.18588
                ],
                [
                    -0.20875,
                    -0.18249,
                    -2.25538
                ]
            ],
            [
                [
                    -1.50175,
                    -0.42805,
                    0.72209
                ],
                [
                    -0.32999,
                    -1.96395,
                    -0.20348
                ],
                [
                    0.65797,
                    0.12054,
                    -5.23227
                ]
            ],
            [
                [
                    -1.50174,
                    0.42809,
                    0.72213
                ],
                [
                    0.32999,
                    -1.96395,
                    0.20348
                ],
                [
                    0.65761,
                    -0.12033,
                    -5.23247
                ]
            ],
            [
                [
                    -1.50174,
                    -0.42809,
                    0.72213
                ],
                [
                    -0.32989,
                    -1.96392,
                    -0.20345
                ],
                [
                    0.65761,
                    0.12033,
                    -5.23247
                ]
            ],
            [
                [
                    -1.50175,
                    0.42805,
                    0.72209
                ],
                [
                    0.32989,
                    -1.96392,
                    0.20345
                ],
                [
                    0.65797,
                    -0.12054,
                    -5.23227
                ]
            ],
            [
                [
                    -3.53846,
                    -1.63268,
                    -0.31488
                ],
                [
                    -1.56408,
                    -3.418,
                    -0.72047
                ],
                [
                    -0.2956,
                    -0.67919,
                    -1.61684
                ]
            ],
            [
                [
                    -3.53846,
                    1.63266,
                    -0.315
                ],
                [
                    1.56408,
                    -3.418,
                    0.72047
                ],
                [
                    -0.29548,
                    0.67923,
                    -1.61689
                ]
            ],
            [
                [
                    -3.53846,
                    -1.63266,
                    -0.315
                ],
                [
                    -1.56436,
                    -3.41791,
                    -0.72015
                ],
                [
                    -0.29548,
                    -0.67923,
                    -1.61689
                ]
            ],
            [
                [
                    -3.53846,
                    1.63268,
                    -0.31488
                ],
                [
                    1.56436,
                    -3.41791,
                    0.72015
                ],
                [
                    -0.2956,
                    0.67919,
                    -1.61684
                ]
            ]
        ]
    },
    "band_gap": 3.7682,
    "is_direct": false,
    "formula": "LaTaO4"
}