{
    "mp_id": "mp-4481",
    "nelements": 3,
    "nsites": 28,
    "elements": [
        "Ca",
        "O",
        "Si"
    ],
    "structure": {
        "@module": "pymatgen.core.structure",
        "@class": "Structure",
        "charge": null,
        "lattice": {
            "matrix": [
                [
                    11.17379355,
                    0.0,
                    0.0
                ],
                [
                    0.0,
                    6.71398181,
                    0.0
                ],
                [
                    0.0,
                    0.0,
                    5.06458014
                ]
            ],
            "a": 11.17379355,
            "b": 6.71398181,
            "c": 5.06458014,
            "alpha": 90.0,
            "beta": 90.0,
            "gamma": 90.0,
            "volume": 379.9480770800976
        },
        "sites": [
            {
                "species": [
                    {
                        "element": "Ca",
                        "occu": 1
                    }
                ],
                "abc": [
                    0.78032597,
                    0.75,
                    0.49116446
                ],
                "xyz": [
                    8.719201290483493,
                    5.0354863575,
                    2.4875417695898245
                ],
                "label": "Ca",
                "properties": {}
            },
            {
                "species": [
                    {
                        "element": "Ca",
                        "occu": 1
                    }
                ],
                "abc": [
                    0.71967403,
                    0.25,
                    0.99116446
                ],
                "xyz": [
                    8.041489034516506,
                    1.6784954525,
                    5.019831839589825
                ],
                "label": "Ca",
                "properties": {}
            },
            {
                "species": [
                    {
                        "element": "Ca",
                        "occu": 1
                    }
                ],
                "abc": [
                    0.21967403,
                    0.25,
                    0.50883554
                ],
                "xyz": [
                    2.4545922595165064,
                    1.6784954525,
                    2.577038370410176
                ],
                "label": "Ca",
                "properties": {}
            },
            {
                "species": [
                    {
                        "element": "Ca",
                        "occu": 1
                    }
                ],
                "abc": [
                    0.28032597,
                    0.75,
                    0.00883554
                ],
                "xyz": [
                    3.132304515483493,
                    5.0354863575,
                    0.0447483004101756
                ],
                "label": "Ca",
                "properties": {}
            },
            {
                "species": [
                    {
                        "element": "Ca",
                        "occu": 1
                    }
                ],
                "abc": [
                    0.5,
                    0.5,
                    0.5
                ],
                "xyz": [
                    5.586896775,
                    3.356990905,
                    2.53229007
                ],
                "label": "Ca",
                "properties": {}
            },
            {
                "species": [
                    {
                        "element": "Ca",
                        "occu": 1
                    }
                ],
                "abc": [
                    0.0,
                    0.5,
                    0.0
                ],
                "xyz": [
                    0.0,
                    3.356990905,
                    0.0
                ],
                "label": "Ca",
                "properties": {}
            },
            {
                "species": [
                    {
                        "element": "Ca",
                        "occu": 1
                    }
                ],
                "abc": [
                    0.5,
                    0.0,
                    0.5
                ],
                "xyz": [
                    5.586896775,
                    0.0,
                    2.53229007
                ],
                "label": "Ca",
                "properties": {}
            },
            {
                "species": [
                    {
                        "element": "Ca",
                        "occu": 1
                    }
                ],
                "abc": [
                    0.0,
                    0.0,
                    0.0
                ],
                "xyz": [
                    0.0,
                    0.0,
                    0.0
                ],
                "label": "Ca",
                "properties": {}
            },
            {
                "species": [
                    {
                        "element": "Si",
                        "occu": 1
                    }
                ],
                "abc": [
                    0.59609769,
                    0.75,
                    0.92735317
                ],
                "xyz": [
                    6.6606725236918995,
                    5.0354863575,
                    4.696654447548044
                ],
                "label": "Si",
                "properties": {}
            },
            {
                "species": [
                    {
                        "element": "Si",
                        "occu": 1
                    }
                ],
                "abc": [
                    0.90390231,
                    0.25,
                    0.42735317
                ],
                "xyz": [
                    10.1000178013081,
                    1.6784954525,
                    2.164364377548044
                ],
                "label": "Si",
                "properties": {}
            },
            {
                "species": [
                    {
                        "element": "Si",
                        "occu": 1
                    }
                ],
                "abc": [
                    0.40390231,
                    0.25,
                    0.07264683
                ],
                "xyz": [
                    4.5131210263081,
                    1.6784954525,
                    0.3679256924519562
                ],
                "label": "Si",
                "properties": {}
            },
            {
                "species": [
                    {
                        "element": "Si",
                        "occu": 1
                    }
                ],
                "abc": [
                    0.09609769,
                    0.75,
                    0.57264683
                ],
                "xyz": [
                    1.0737757486918995,
                    5.0354863575,
                    2.9002157624519564
                ],
                "label": "Si",
                "properties": {}
            },
            {
                "species": [
                    {
                        "element": "O",
                        "occu": 1
                    }
                ],
                "abc": [
                    0.33742732,
                    0.44650038,
                    0.20500001
                ],
                "xyz": [
                    3.7703432118097853,
                    2.9977954294780877,
                    1.0382389793458016
                ],
                "label": "O",
                "properties": {}
            },
            {
                "species": [
                    {
                        "element": "O",
                        "occu": 1
                    }
                ],
                "abc": [
                    0.16257268,
                    0.55349962,
                    0.70500001
                ],
                "xyz": [
                    1.8165535631902139,
                    3.7161863805219117,
                    3.5705290493458017
                ],
                "label": "O",
                "properties": {}
            },
            {
                "species": [
                    {
                        "element": "O",
                        "occu": 1
                    }
                ],
                "abc": [
                    0.66257268,
                    0.94650038,
                    0.79499999
                ],
                "xyz": [
                    7.403450338190214,
                    6.354786334478088,
                    4.026341160654199
                ],
                "label": "O",
                "properties": {}
            },
            {
                "species": [
                    {
                        "element": "O",
                        "occu": 1
                    }
                ],
                "abc": [
                    0.83742732,
                    0.05349962,
                    0.29499999
                ],
                "xyz": [
                    9.357239986809786,
                    0.35919547552191217,
                    1.4940510906541986
                ],
                "label": "O",
                "properties": {}
            },
            {
                "species": [
                    {
                        "element": "O",
                        "occu": 1
                    }
                ],
                "abc": [
                    0.66257268,
                    0.55349962,
                    0.79499999
                ],
                "xyz": [
                    7.403450338190214,
                    3.7161863805219117,
                    4.026341160654199
                ],
                "label": "O",
                "properties": {}
            },
            {
                "species": [
                    {
                        "element": "O",
                        "occu": 1
                    }
                ],
                "abc": [
                    0.83742732,
                    0.44650038,
                    0.29499999
                ],
                "xyz": [
                    9.357239986809786,
                    2.9977954294780877,
                    1.4940510906541986
                ],
                "label": "O",
                "properties": {}
            },
            {
                "species": [
                    {
                        "element": "O",
                        "occu": 1
                    }
                ],
                "abc": [
                    0.33742732,
                    0.05349962,
                    0.20500001
                ],
                "xyz": [
                    3.7703432118097853,
                    0.35919547552191217,
                    1.0382389793458016
                ],
                "label": "O",
                "properties": {}
            },
            {
                "species": [
                    {
                        "element": "O",
                        "occu": 1
                    }
                ],
                "abc": [
                    0.16257268,
                    0.94650038,
                    0.70500001
                ],
                "xyz": [
                    1.8165535631902139,
                    6.354786334478088,
                    3.5705290493458017
                ],
                "label": "O",
                "properties": {}
            },
            {
                "species": [
                    {
                        "element": "O",
                        "occu": 1
                    }
                ],
                "abc": [
                    0.45949516,
                    0.75,
                    0.79562783
                ],
                "xyz": [
                    5.134304055064217,
                    5.0354863575,
                    4.029520906649297
                ],
                "label": "O",
                "properties": {}
            },
            {
                "species": [
                    {
                        "element": "O",
                        "occu": 1
                    }
                ],
                "abc": [
                    0.04050484,
                    0.25,
                    0.29562783
                ],
                "xyz": [
                    0.452592719935782,
                    1.6784954525,
                    1.4972308366492961
                ],
                "label": "O",
                "properties": {}
            },
            {
                "species": [
                    {
                        "element": "O",
                        "occu": 1
                    }
                ],
                "abc": [
                    0.54050484,
                    0.25,
                    0.20437217
                ],
                "xyz": [
                    6.039489494935782,
                    1.6784954525,
                    1.0350592333507038
                ],
                "label": "O",
                "properties": {}
            },
            {
                "species": [
                    {
                        "element": "O",
                        "occu": 1
                    }
                ],
                "abc": [
                    0.95949516,
                    0.75,
                    0.70437217
                ],
                "xyz": [
                    10.721200830064218,
                    5.0354863575,
                    3.5673493033507038
                ],
                "label": "O",
                "properties": {}
            },
            {
                "species": [
                    {
                        "element": "O",
                        "occu": 1
                    }
                ],
                "abc": [
                    0.09268636,
                    0.75,
                    0.24968306
                ],
                "xyz": [
                    1.0356582515409778,
                    5.0354863575,
                    1.2645398669704286
                ],
                "label": "O",
                "properties": {}
            },
            {
                "species": [
                    {
                        "element": "O",
                        "occu": 1
                    }
                ],
                "abc": [
                    0.40731364,
                    0.25,
                    0.74968306
                ],
                "xyz": [
                    4.551238523459022,
                    1.6784954525,
                    3.7968299369704286
                ],
                "label": "O",
                "properties": {}
            },
            {
                "species": [
                    {
                        "element": "O",
                        "occu": 1
                    }
                ],
                "abc": [
                    0.90731364,
                    0.25,
                    0.75031694
                ],
                "xyz": [
                    10.138135298459021,
                    1.6784954525,
                    3.800040273029572
                ],
                "label": "O",
                "properties": {}
            },
            {
                "species": [
                    {
                        "element": "O",
                        "occu": 1
                    }
                ],
                "abc": [
                    0.59268636,
                    0.75,
                    0.25031694
                ],
                "xyz": [
                    6.622555026540977,
                    5.0354863575,
                    1.2677502030295715
                ],
                "label": "O",
                "properties": {}
            }
        ]
    },
    "spacegroup": {
        "source": "spglib",
        "symbol": "Pnma",
        "number": 62,
        "point_group": "mmm",
        "crystal_system": "orthorhombic",
        "hall": "-P 2ac 2n"
    },
    "dielectric": {
        "epsilon_ionic": [
            [
                5.79153972,
                -0.0,
                0.0
            ],
            [
                -0.0,
                5.14899653,
                -0.0
            ],
            [
                0.0,
                -0.0,
                4.66879649
            ]
        ],
        "epsilon_ionic_avg": 5.203110913333334,
        "epsilon_ionic_eig": [
            5.79153972,
            5.14899653,
            4.66879649
        ],
        "epsilon_electronic": [
            [
                2.97818044,
                0.0,
                0.0
            ],
            [
                0.0,
                3.04591862,
                0.0
            ],
            [
                0.0,
                0.0,
                3.04890839
            ]
        ],
        "epsilon_electronic_avg": 3.024335816666667,
        "epsilon_electronic_eig": [
            2.97818044,
            3.04591862,
            3.04890839
        ]
    },
    "phonon": {
        "lowest_freq": -0.0334055194115752,
        "frequency": [
            -0.0334055194115752,
            -0.02314120292920914,
            -0.022891048720639677,
            2.167515800348305,
            3.352948906677863,
            3.4485183558114634,
            3.799830962988211,
            4.021119767092348,
            4.378395684218404,
            4.398328468231614,
            5.153162869740873,
            5.26223512566313,
            5.292138463369873,
            5.442911762011144,
            5.4757555384693335,
            5.894553715499805,
            5.910182878128578,
            6.013358301719443,
            6.013412986450524,
            6.101400826959074,
            6.241129068285608,
            6.45285908365251,
            6.9403664707943635,
            7.096702961389582,
            7.362899793016519,
            7.370111407864653,
            7.544795084093002,
            7.554962891392226,
            7.74085407262626,
            7.78994942585088,
            7.816403599080669,
            7.956428238283875,
            7.997602213375965,
            8.486272802153724,
            8.649418999741334,
            8.805343865347378,
            8.807357643884073,
            8.830867574925401,
            8.97452679831942,
            8.996988187255749,
            9.076479043096736,
            9.188744784508785,
            9.259900913116958,
            9.309048847733992,
            9.461757332044737,
            9.481502638339457,
            10.750729756717396,
            11.321410934110574,
            11.389594604747623,
            11.495167885458711,
            11.683085511741046,
            11.92284451146231,
            11.938548720276279,
            11.949649466716837,
            12.470655236045506,
            13.04591340135124,
            13.849970743643654,
            13.897377370839793,
            14.617946943623023,
            14.630332074541913,
            14.933637390187844,
            15.723742857481676,
            15.839866644866964,
            15.857524812408476,
            15.915165744439095,
            15.935884897420516,
            16.239336845638455,
            16.642489926527947,
            23.65082924072594,
            23.69113510763185,
            23.715400488683436,
            23.938161965676002,
            24.610267506980605,
            24.766654190534087,
            24.78299986436318,
            24.98424463350221,
            25.222924626272764,
            25.562277131626153,
            25.883121919234398,
            26.781526374136416,
            27.23641183191805,
            27.2793571463991,
            27.29449724067295,
            27.470036891394304
        ]
    },
    "born_effective_charge": {
        "avg_abs_trace": 2.157402380952381,
        "tensors": [
            [
                [
                    2.66788,
                    -0.0,
                    -0.04711
                ],
                [
                    -1e-05,
                    2.42172,
                    0.0001
                ],
                [
                    0.03649,
                    0.0,
                    2.09432
                ]
            ],
            [
                [
                    2.66801,
                    -0.0,
                    0.04713
                ],
                [
                    1e-05,
                    2.42172,
                    0.0001
                ],
                [
                    -0.03649,
                    0.0,
                    2.09432
                ]
            ],
            [
                [
                    2.66801,
                    -0.0,
                    -0.04713
                ],
                [
                    1e-05,
                    2.42172,
                    -0.0001
                ],
                [
                    0.03648,
                    0.0,
                    2.09427
                ]
            ],
            [
                [
                    2.66788,
                    -0.0,
                    0.04711
                ],
                [
                    -1e-05,
                    2.42172,
                    -0.0001
                ],
                [
                    -0.03648,
                    0.0,
                    2.09427
                ]
            ],
            [
                [
                    2.03141,
                    0.3733,
                    0.13114
                ],
                [
                    0.37754,
                    2.42089,
                    0.30633
                ],
                [
                    0.04788,
                    0.15149,
                    2.56862
                ]
            ],
            [
                [
                    2.03141,
                    0.3733,
                    -0.13114
                ],
                [
                    0.37754,
                    2.42089,
                    -0.30633
                ],
                [
                    -0.04788,
                    -0.15149,
                    2.56862
                ]
            ],
            [
                [
                    2.03141,
                    -0.3733,
                    0.13114
                ],
                [
                    -0.37754,
                    2.42089,
                    -0.30633
                ],
                [
                    0.04788,
                    -0.15149,
                    2.56862
                ]
            ],
            [
                [
                    2.03141,
                    -0.3733,
                    -0.13114
                ],
                [
                    -0.37754,
                    2.42089,
                    0.30633
                ],
                [
                    -0.04788,
                    0.15149,
                    2.56862
                ]
            ],
            [
                [
                    2.55034,
                    -0.0,
                    -0.05963
                ],
                [
                    -8e-05,
                    2.77322,
                    7e-05
                ],
                [
                    0.01137,
                    0.0,
                    3.12428
                ]
            ],
            [
                [
                    2.55034,
                    -0.0,
                    0.05965
                ],
                [
                    8e-05,
                    2.77322,
                    7e-05
                ],
                [
                    -0.01137,
                    0.0,
                    3.12428
                ]
            ],
            [
                [
                    2.55034,
                    -0.0,
                    -0.05965
                ],
                [
                    8e-05,
                    2.77322,
                    -7e-05
                ],
                [
                    0.01139,
                    0.0,
                    3.12429
                ]
            ],
            [
                [
                    2.55034,
                    -0.0,
                    0.05963
                ],
                [
                    -8e-05,
                    2.77322,
                    -7e-05
                ],
                [
                    -0.01139,
                    0.0,
                    3.12429
                ]
            ],
            [
                [
                    -1.72163,
                    0.2764,
                    0.10107
                ],
                [
                    0.22688,
                    -2.1673,
                    -0.05584
                ],
                [
                    0.03274,
                    -0.01152,
                    -1.69261
                ]
            ],
            [
                [
                    -1.72167,
                    0.27641,
                    -0.10108
                ],
                [
                    0.22697,
                    -2.16742,
                    0.05602
                ],
                [
                    -0.03274,
                    0.01152,
                    -1.69261
                ]
            ],
            [
                [
                    -1.72167,
                    -0.27641,
                    0.10108
                ],
                [
                    -0.22688,
                    -2.1673,
                    0.05584
                ],
                [
                    0.03271,
                    0.01146,
                    -1.69261
                ]
            ],
            [
                [
                    -1.72163,
                    -0.2764,
                    -0.10107
                ],
                [
                    -0.22697,
                    -2.16742,
                    -0.05602
                ],
                [
                    -0.03271,
                    -0.01146,
                    -1.69261
                ]
            ],
            [
                [
                    -1.72167,
                    0.27641,
                    0.10108
                ],
                [
                    0.22697,
                    -2.16742,
                    -0.05602
                ],
                [
                    0.03271,
                    -0.01146,
                    -1.69261
                ]
            ],
            [
                [
                    -1.72163,
                    0.2764,
                    -0.10107
                ],
                [
                    0.22688,
                    -2.1673,
                    0.05584
                ],
                [
                    -0.03271,
                    0.01146,
                    -1.69261
                ]
            ],
            [
                [
                    -1.72163,
                    -0.2764,
                    0.10107
                ],
                [
                    -0.22697,
                    -2.16742,
                    0.05602
                ],
                [
                    0.03274,
                    0.01152,
                    -1.69261
                ]
            ],
            [
                [
                    -1.72167,
                    -0.27641,
                    -0.10108
                ],
                [
                    -0.22688,
                    -2.1673,
                    -0.05584
                ],
                [
                    -0.03274,
                    -0.01152,
                    -1.69261
                ]
            ],
            [
                [
                    -2.2778,
                    -0.0,
                    -0.07405
                ],
                [
                    3e-05,
                    -1.70647,
                    7e-05
                ],
                [
                    -0.0125,
                    0.0,
                    -1.81967
                ]
            ],
            [
                [
                    -2.27776,
                    -0.0,
                    0.074
                ],
                [
                    -3e-05,
                    -1.70647,
                    7e-05
                ],
                [
                    0.0125,
                    0.0,
                    -1.81967
                ]
            ],
            [
                [
                    -2.27776,
                    -0.0,
                    -0.074
                ],
                [
                    -3e-05,
                    -1.70647,
                    -7e-05
                ],
                [
                    -0.0125,
                    0.0,
                    -1.81971
                ]
            ],
            [
                [
                    -2.2778,
                    -0.0,
                    0.07405
                ],
                [
                    3e-05,
                    -1.70647,
                    -7e-05
                ],
                [
                    0.0125,
                    0.0,
                    -1.81971
                ]
            ],
            [
                [
                    -1.52864,
                    -0.0,
                    -0.04459
                ],
                [
                    3e-05,
                    -1.57464,
                    0.00012
                ],
                [
                    -0.08203,
                    0.0,
                    -2.58233
                ]
            ],
            [
                [
                    -1.52858,
                    -0.0,
                    0.04449
                ],
                [
                    -3e-05,
                    -1.57464,
                    0.00012
                ],
                [
                    0.08203,
                    0.0,
                    -2.58233
                ]
            ],
            [
                [
                    -1.52858,
                    -0.0,
                    -0.04449
                ],
                [
                    -3e-05,
                    -1.57464,
                    -0.00012
                ],
                [
                    -0.08203,
                    0.0,
                    -2.58226
                ]
            ],
            [
                [
                    -1.52864,
                    -0.0,
                    0.04459
                ],
                [
                    3e-05,
                    -1.57464,
                    -0.00012
                ],
                [
                    0.08203,
                    0.0,
                    -2.58226
                ]
            ]
        ]
    },
    "band_gap": 4.2534,
    "is_direct": false,
    "formula": "Ca2SiO4"
}