{
    "mp_id": "mp-4753",
    "nelements": 3,
    "nsites": 32,
    "elements": [
        "Al",
        "O",
        "Si"
    ],
    "structure": {
        "@module": "pymatgen.core.structure",
        "@class": "Structure",
        "charge": null,
        "lattice": {
            "matrix": [
                [
                    7.79824898,
                    0.0,
                    0.0
                ],
                [
                    0.0,
                    7.9183237,
                    0.0
                ],
                [
                    0.0,
                    0.0,
                    5.58362728
                ]
            ],
            "a": 7.79824898,
            "b": 7.9183237,
            "c": 5.58362728,
            "alpha": 90.0,
            "beta": 90.0,
            "gamma": 90.0,
            "volume": 344.783734349268
        },
        "sites": [
            {
                "species": [
                    {
                        "element": "Al",
                        "occu": 1
                    }
                ],
                "abc": [
                    0.0,
                    0.0,
                    0.24224547
                ],
                "xyz": [
                    0.0,
                    0.0,
                    1.3526084147484216
                ],
                "label": "Al",
                "properties": {}
            },
            {
                "species": [
                    {
                        "element": "Al",
                        "occu": 1
                    }
                ],
                "abc": [
                    0.5,
                    0.5,
                    0.25775453
                ],
                "xyz": [
                    3.89912449,
                    3.95916185,
                    1.4392052252515783
                ],
                "label": "Al",
                "properties": {}
            },
            {
                "species": [
                    {
                        "element": "Al",
                        "occu": 1
                    }
                ],
                "abc": [
                    0.0,
                    0.0,
                    0.75775453
                ],
                "xyz": [
                    0.0,
                    0.0,
                    4.2310188652515786
                ],
                "label": "Al",
                "properties": {}
            },
            {
                "species": [
                    {
                        "element": "Al",
                        "occu": 1
                    }
                ],
                "abc": [
                    0.5,
                    0.5,
                    0.74224547
                ],
                "xyz": [
                    3.89912449,
                    3.95916185,
                    4.144422054748421
                ],
                "label": "Al",
                "properties": {}
            },
            {
                "species": [
                    {
                        "element": "Al",
                        "occu": 1
                    }
                ],
                "abc": [
                    0.13019237,
                    0.63850386,
                    0.0
                ],
                "xyz": [
                    1.0152725165562826,
                    5.055880247179482,
                    0.0
                ],
                "label": "Al",
                "properties": {}
            },
            {
                "species": [
                    {
                        "element": "Al",
                        "occu": 1
                    }
                ],
                "abc": [
                    0.86980763,
                    0.36149614,
                    0.0
                ],
                "xyz": [
                    6.782976463443718,
                    2.8624434528205183,
                    0.0
                ],
                "label": "Al",
                "properties": {}
            },
            {
                "species": [
                    {
                        "element": "Al",
                        "occu": 1
                    }
                ],
                "abc": [
                    0.63019237,
                    0.86149614,
                    0.5
                ],
                "xyz": [
                    4.914397006556283,
                    6.821605302820518,
                    2.79181364
                ],
                "label": "Al",
                "properties": {}
            },
            {
                "species": [
                    {
                        "element": "Al",
                        "occu": 1
                    }
                ],
                "abc": [
                    0.36980763,
                    0.13850386,
                    0.5
                ],
                "xyz": [
                    2.8838519734437176,
                    1.096718397179482,
                    2.79181364
                ],
                "label": "Al",
                "properties": {}
            },
            {
                "species": [
                    {
                        "element": "Si",
                        "occu": 1
                    }
                ],
                "abc": [
                    0.24516627,
                    0.25070097,
                    0.0
                ],
                "xyz": [
                    1.9118676149579046,
                    1.9851314323639893,
                    0.0
                ],
                "label": "Si",
                "properties": {}
            },
            {
                "species": [
                    {
                        "element": "Si",
                        "occu": 1
                    }
                ],
                "abc": [
                    0.75483373,
                    0.74929903,
                    0.0
                ],
                "xyz": [
                    5.886381365042095,
                    5.933192267636011,
                    0.0
                ],
                "label": "Si",
                "properties": {}
            },
            {
                "species": [
                    {
                        "element": "Si",
                        "occu": 1
                    }
                ],
                "abc": [
                    0.74516627,
                    0.24929903,
                    0.5
                ],
                "xyz": [
                    5.810992104957905,
                    1.974030417636011,
                    2.79181364
                ],
                "label": "Si",
                "properties": {}
            },
            {
                "species": [
                    {
                        "element": "Si",
                        "occu": 1
                    }
                ],
                "abc": [
                    0.25483373,
                    0.75070097,
                    0.5
                ],
                "xyz": [
                    1.9872568750420954,
                    5.944293282363989,
                    2.79181364
                ],
                "label": "Si",
                "properties": {}
            },
            {
                "species": [
                    {
                        "element": "O",
                        "occu": 1
                    }
                ],
                "abc": [
                    0.72901819,
                    0.36786089,
                    0.74018113
                ],
                "xyz": [
                    5.685065356568947,
                    2.9128416035900933,
                    4.132895549609226
                ],
                "label": "O",
                "properties": {}
            },
            {
                "species": [
                    {
                        "element": "O",
                        "occu": 1
                    }
                ],
                "abc": [
                    0.27098181,
                    0.63213911,
                    0.74018113
                ],
                "xyz": [
                    2.1131836234310537,
                    5.005482096409907,
                    4.132895549609226
                ],
                "label": "O",
                "properties": {}
            },
            {
                "species": [
                    {
                        "element": "O",
                        "occu": 1
                    }
                ],
                "abc": [
                    0.22901819,
                    0.13213911,
                    0.75981887
                ],
                "xyz": [
                    1.7859408665689465,
                    1.046320246409907,
                    4.242545370390774
                ],
                "label": "O",
                "properties": {}
            },
            {
                "species": [
                    {
                        "element": "O",
                        "occu": 1
                    }
                ],
                "abc": [
                    0.77098181,
                    0.86786089,
                    0.75981887
                ],
                "xyz": [
                    6.012308113431054,
                    6.872003453590093,
                    4.242545370390774
                ],
                "label": "O",
                "properties": {}
            },
            {
                "species": [
                    {
                        "element": "O",
                        "occu": 1
                    }
                ],
                "abc": [
                    0.27098181,
                    0.63213911,
                    0.25981887
                ],
                "xyz": [
                    2.1131836234310537,
                    5.005482096409907,
                    1.4507317303907734
                ],
                "label": "O",
                "properties": {}
            },
            {
                "species": [
                    {
                        "element": "O",
                        "occu": 1
                    }
                ],
                "abc": [
                    0.72901819,
                    0.36786089,
                    0.25981887
                ],
                "xyz": [
                    5.685065356568947,
                    2.9128416035900933,
                    1.4507317303907734
                ],
                "label": "O",
                "properties": {}
            },
            {
                "species": [
                    {
                        "element": "O",
                        "occu": 1
                    }
                ],
                "abc": [
                    0.77098181,
                    0.86786089,
                    0.24018113
                ],
                "xyz": [
                    6.012308113431054,
                    6.872003453590093,
                    1.3410819096092264
                ],
                "label": "O",
                "properties": {}
            },
            {
                "species": [
                    {
                        "element": "O",
                        "occu": 1
                    }
                ],
                "abc": [
                    0.22901819,
                    0.13213911,
                    0.24018113
                ],
                "xyz": [
                    1.7859408665689465,
                    1.046320246409907,
                    1.3410819096092264
                ],
                "label": "O",
                "properties": {}
            },
            {
                "species": [
                    {
                        "element": "O",
                        "occu": 1
                    }
                ],
                "abc": [
                    0.39746468,
                    0.90078632,
                    0.5
                ],
                "xyz": [
                    3.0995285353960265,
                    7.132717666291785,
                    2.79181364
                ],
                "label": "O",
                "properties": {}
            },
            {
                "species": [
                    {
                        "element": "O",
                        "occu": 1
                    }
                ],
                "abc": [
                    0.60253532,
                    0.09921368,
                    0.5
                ],
                "xyz": [
                    4.698720444603974,
                    0.785606033708216,
                    2.79181364
                ],
                "label": "O",
                "properties": {}
            },
            {
                "species": [
                    {
                        "element": "O",
                        "occu": 1
                    }
                ],
                "abc": [
                    0.89746468,
                    0.59921368,
                    0.0
                ],
                "xyz": [
                    6.998653025396027,
                    4.7447678837082155,
                    0.0
                ],
                "label": "O",
                "properties": {}
            },
            {
                "species": [
                    {
                        "element": "O",
                        "occu": 1
                    }
                ],
                "abc": [
                    0.10253532,
                    0.40078632,
                    0.0
                ],
                "xyz": [
                    0.7995959546039736,
                    3.173555816291784,
                    0.0
                ],
                "label": "O",
                "properties": {}
            },
            {
                "species": [
                    {
                        "element": "O",
                        "occu": 1
                    }
                ],
                "abc": [
                    0.42347668,
                    0.36228443,
                    0.5
                ],
                "xyz": [
                    3.3023765878637863,
                    2.868685388209991,
                    2.79181364
                ],
                "label": "O",
                "properties": {}
            },
            {
                "species": [
                    {
                        "element": "O",
                        "occu": 1
                    }
                ],
                "abc": [
                    0.57652332,
                    0.63771557,
                    0.5
                ],
                "xyz": [
                    4.495872392136214,
                    5.049638311790009,
                    2.79181364
                ],
                "label": "O",
                "properties": {}
            },
            {
                "species": [
                    {
                        "element": "O",
                        "occu": 1
                    }
                ],
                "abc": [
                    0.92347668,
                    0.13771557,
                    0.0
                ],
                "xyz": [
                    7.201501077863787,
                    1.0904764617900091,
                    0.0
                ],
                "label": "O",
                "properties": {}
            },
            {
                "species": [
                    {
                        "element": "O",
                        "occu": 1
                    }
                ],
                "abc": [
                    0.07652332,
                    0.86228443,
                    0.0
                ],
                "xyz": [
                    0.5967479021362136,
                    6.8278472382099915,
                    0.0
                ],
                "label": "O",
                "properties": {}
            },
            {
                "species": [
                    {
                        "element": "O",
                        "occu": 1
                    }
                ],
                "abc": [
                    0.42499315,
                    0.36191034,
                    0.0
                ],
                "xyz": [
                    3.314202398494487,
                    2.865723222497058,
                    0.0
                ],
                "label": "O",
                "properties": {}
            },
            {
                "species": [
                    {
                        "element": "O",
                        "occu": 1
                    }
                ],
                "abc": [
                    0.57500685,
                    0.63808966,
                    0.0
                ],
                "xyz": [
                    4.484046581505513,
                    5.052600477502942,
                    0.0
                ],
                "label": "O",
                "properties": {}
            },
            {
                "species": [
                    {
                        "element": "O",
                        "occu": 1
                    }
                ],
                "abc": [
                    0.92499315,
                    0.13808966,
                    0.5
                ],
                "xyz": [
                    7.213326888494487,
                    1.093438627502942,
                    2.79181364
                ],
                "label": "O",
                "properties": {}
            },
            {
                "species": [
                    {
                        "element": "O",
                        "occu": 1
                    }
                ],
                "abc": [
                    0.07500685,
                    0.86191034,
                    0.5
                ],
                "xyz": [
                    0.584922091505513,
                    6.824885072497058,
                    2.79181364
                ],
                "label": "O",
                "properties": {}
            }
        ]
    },
    "spacegroup": {
        "source": "spglib",
        "symbol": "Pnnm",
        "number": 58,
        "point_group": "mmm",
        "crystal_system": "orthorhombic",
        "hall": "-P 2 2n"
    },
    "dielectric": {
        "epsilon_ionic": [
            [
                5.6422109,
                0.0,
                0.0
            ],
            [
                0.0,
                4.29045228,
                0.0
            ],
            [
                0.0,
                0.0,
                2.81673107
            ]
        ],
        "epsilon_ionic_avg": 4.249798083333333,
        "epsilon_ionic_eig": [
            5.6422109,
            4.29045228,
            2.81673107
        ],
        "epsilon_electronic": [
            [
                2.84281135,
                0.0,
                0.0
            ],
            [
                -0.0,
                2.81328657,
                0.0
            ],
            [
                0.0,
                0.0,
                2.7887741
            ]
        ],
        "epsilon_electronic_avg": 2.81495734,
        "epsilon_electronic_eig": [
            2.84281135,
            2.81328657,
            2.7887741
        ]
    },
    "phonon": {
        "lowest_freq": -0.06950310256413172,
        "frequency": [
            -0.06950310256413172,
            -0.06328664850588643,
            -0.031328909182510765,
            3.0790515413508746,
            4.612090126680514,
            5.423627691163516,
            5.76321755622579,
            5.8106417462396704,
            5.874953374594881,
            6.153994616492603,
            6.160870045809292,
            6.171415651314029,
            6.592521913987911,
            6.873190140592355,
            7.06857572535972,
            7.17091192211593,
            7.299664584884525,
            7.907721913007524,
            8.330200078415354,
            8.388655979712775,
            8.469669016648949,
            8.60062019684794,
            8.646228535183035,
            8.910926463329467,
            8.979328413445543,
            9.280426944693085,
            9.405024640144623,
            9.90471592753226,
            10.176121987408338,
            10.182872265962887,
            10.42046968663624,
            10.45059129711637,
            10.815867862256221,
            10.847125512535923,
            11.05154042986972,
            11.265222901538882,
            11.288194604007895,
            11.308821162516978,
            11.556694607281004,
            11.97967744628365,
            12.012641748786514,
            12.188877015468952,
            12.3527195143599,
            12.502332847373138,
            12.95365283353176,
            12.975572749135104,
            13.481080688069103,
            13.826908638063463,
            14.161087709890706,
            14.28242361620285,
            14.966249858009503,
            15.194120314439317,
            15.801127505973732,
            15.861933335988573,
            16.12193142756276,
            16.362660194605674,
            16.453734343889337,
            16.67492423837897,
            17.0191002879603,
            17.306780731081957,
            17.637026482127542,
            17.884470566996402,
            17.9857210419476,
            18.24652420698534,
            18.55134093157945,
            18.595748000839976,
            18.94542638427043,
            19.00215883891839,
            19.156142005192223,
            19.42098208631668,
            19.500841237250878,
            19.67537221201233,
            20.29671213336337,
            20.821751494668778,
            20.98735165571922,
            21.323195664016627,
            22.716321541780232,
            23.251201731759426,
            24.55195983704154,
            24.606056628108906,
            25.19915165758681,
            25.471842398700943,
            26.766687619301795,
            27.030271659204935,
            27.092802793847767,
            27.393989303695307,
            27.399058885814757,
            27.52095178114585,
            27.60621864333837,
            27.624962975694785,
            27.70460747027748,
            28.412677830242636,
            28.62378976089828,
            29.778881672758388,
            31.48756641014446,
            32.721199535339565
        ]
    },
    "born_effective_charge": {
        "avg_abs_trace": 2.2472302083333333,
        "tensors": [
            [
                [
                    2.88773,
                    0.03467,
                    -0.0
                ],
                [
                    0.28999,
                    2.88352,
                    -0.0
                ],
                [
                    -0.0,
                    -0.0,
                    3.04852
                ]
            ],
            [
                [
                    2.88773,
                    -0.03467,
                    0.0
                ],
                [
                    -0.28999,
                    2.88352,
                    0.0
                ],
                [
                    -0.0,
                    -0.0,
                    3.04849
                ]
            ],
            [
                [
                    2.88773,
                    0.03467,
                    0.0
                ],
                [
                    0.28999,
                    2.88352,
                    0.0
                ],
                [
                    -0.0,
                    -0.0,
                    3.04849
                ]
            ],
            [
                [
                    2.88773,
                    -0.03467,
                    -0.0
                ],
                [
                    -0.28999,
                    2.88352,
                    -0.0
                ],
                [
                    -0.0,
                    -0.0,
                    3.04852
                ]
            ],
            [
                [
                    2.90212,
                    -0.18397,
                    0.0
                ],
                [
                    -0.06416,
                    3.08585,
                    0.0
                ],
                [
                    -2e-05,
                    -0.0,
                    2.60889
                ]
            ],
            [
                [
                    2.90209,
                    -0.18399,
                    0.0
                ],
                [
                    -0.06415,
                    3.08584,
                    0.0
                ],
                [
                    2e-05,
                    0.0,
                    2.60889
                ]
            ],
            [
                [
                    2.90212,
                    0.18397,
                    0.0
                ],
                [
                    0.06415,
                    3.08584,
                    0.0
                ],
                [
                    -2e-05,
                    0.0,
                    2.60889
                ]
            ],
            [
                [
                    2.90209,
                    0.18399,
                    0.0
                ],
                [
                    0.06416,
                    3.08585,
                    0.0
                ],
                [
                    2e-05,
                    -0.0,
                    2.60889
                ]
            ],
            [
                [
                    3.18997,
                    0.35412,
                    0.0
                ],
                [
                    0.46871,
                    3.23701,
                    0.0
                ],
                [
                    2e-05,
                    6e-05,
                    3.12323
                ]
            ],
            [
                [
                    3.18992,
                    0.35412,
                    0.0
                ],
                [
                    0.46871,
                    3.23697,
                    0.0
                ],
                [
                    -2e-05,
                    -6e-05,
                    3.12323
                ]
            ],
            [
                [
                    3.18997,
                    -0.35412,
                    0.0
                ],
                [
                    -0.46871,
                    3.23697,
                    0.0
                ],
                [
                    2e-05,
                    -6e-05,
                    3.12323
                ]
            ],
            [
                [
                    3.18992,
                    -0.35412,
                    0.0
                ],
                [
                    -0.46871,
                    3.23701,
                    0.0
                ],
                [
                    -2e-05,
                    6e-05,
                    3.12323
                ]
            ],
            [
                [
                    -1.72398,
                    0.30945,
                    -0.33694
                ],
                [
                    0.37001,
                    -1.59128,
                    -0.43697
                ],
                [
                    -0.27707,
                    -0.39572,
                    -2.04629
                ]
            ],
            [
                [
                    -1.72396,
                    0.30945,
                    0.33693
                ],
                [
                    0.37,
                    -1.59126,
                    0.43697
                ],
                [
                    0.27707,
                    0.39572,
                    -2.04629
                ]
            ],
            [
                [
                    -1.72398,
                    -0.30945,
                    0.33694
                ],
                [
                    -0.37,
                    -1.59126,
                    -0.43697
                ],
                [
                    0.27709,
                    -0.39567,
                    -2.04631
                ]
            ],
            [
                [
                    -1.72396,
                    -0.30945,
                    -0.33693
                ],
                [
                    -0.37001,
                    -1.59128,
                    0.43697
                ],
                [
                    -0.27709,
                    0.39567,
                    -2.04631
                ]
            ],
            [
                [
                    -1.72396,
                    0.30945,
                    -0.33693
                ],
                [
                    0.37,
                    -1.59126,
                    -0.43697
                ],
                [
                    -0.27709,
                    -0.39567,
                    -2.04631
                ]
            ],
            [
                [
                    -1.72398,
                    0.30945,
                    0.33694
                ],
                [
                    0.37001,
                    -1.59128,
                    0.43697
                ],
                [
                    0.27709,
                    0.39567,
                    -2.04631
                ]
            ],
            [
                [
                    -1.72396,
                    -0.30945,
                    0.33693
                ],
                [
                    -0.37001,
                    -1.59128,
                    -0.43697
                ],
                [
                    0.27707,
                    -0.39572,
                    -2.04629
                ]
            ],
            [
                [
                    -1.72398,
                    -0.30945,
                    -0.33694
                ],
                [
                    -0.37,
                    -1.59126,
                    0.43697
                ],
                [
                    -0.27707,
                    0.39572,
                    -2.04629
                ]
            ],
            [
                [
                    -2.07675,
                    -0.14956,
                    0.0
                ],
                [
                    -0.16249,
                    -2.22356,
                    0.0
                ],
                [
                    3e-05,
                    -2e-05,
                    -1.02581
                ]
            ],
            [
                [
                    -2.07683,
                    -0.14949,
                    0.0
                ],
                [
                    -0.1626,
                    -2.22358,
                    0.0
                ],
                [
                    -3e-05,
                    2e-05,
                    -1.02581
                ]
            ],
            [
                [
                    -2.07675,
                    0.14956,
                    0.0
                ],
                [
                    0.1626,
                    -2.22358,
                    0.0
                ],
                [
                    3e-05,
                    2e-05,
                    -1.02581
                ]
            ],
            [
                [
                    -2.07683,
                    0.14949,
                    0.0
                ],
                [
                    0.16249,
                    -2.22356,
                    0.0
                ],
                [
                    -3e-05,
                    -2e-05,
                    -1.02581
                ]
            ],
            [
                [
                    -1.57469,
                    -0.18932,
                    0.0
                ],
                [
                    -0.15939,
                    -2.08137,
                    0.0
                ],
                [
                    -5e-05,
                    -5e-05,
                    -1.82016
                ]
            ],
            [
                [
                    -1.57465,
                    -0.18936,
                    0.0
                ],
                [
                    -0.15938,
                    -2.08141,
                    0.0
                ],
                [
                    5e-05,
                    5e-05,
                    -1.82016
                ]
            ],
            [
                [
                    -1.57469,
                    0.18932,
                    0.0
                ],
                [
                    0.15938,
                    -2.08141,
                    0.0
                ],
                [
                    -5e-05,
                    5e-05,
                    -1.82016
                ]
            ],
            [
                [
                    -1.57465,
                    0.18936,
                    0.0
                ],
                [
                    0.15939,
                    -2.08137,
                    0.0
                ],
                [
                    5e-05,
                    -5e-05,
                    -1.82016
                ]
            ],
            [
                [
                    -1.88032,
                    -0.72252,
                    0.0
                ],
                [
                    -0.48722,
                    -1.71889,
                    0.0
                ],
                [
                    7e-05,
                    2e-05,
                    -1.84206
                ]
            ],
            [
                [
                    -1.88043,
                    -0.72263,
                    0.0
                ],
                [
                    -0.48722,
                    -1.71883,
                    0.0
                ],
                [
                    -7e-05,
                    -2e-05,
                    -1.84206
                ]
            ],
            [
                [
                    -1.88032,
                    0.72252,
                    0.0
                ],
                [
                    0.48722,
                    -1.71883,
                    0.0
                ],
                [
                    7e-05,
                    -2e-05,
                    -1.84206
                ]
            ],
            [
                [
                    -1.88043,
                    0.72263,
                    0.0
                ],
                [
                    0.48722,
                    -1.71889,
                    0.0
                ],
                [
                    -7e-05,
                    2e-05,
                    -1.84206
                ]
            ]
        ]
    },
    "band_gap": 4.873200000000001,
    "is_direct": true,
    "formula": "Al2SiO5"
}