{
    "mp_id": "mp-4156",
    "nelements": 3,
    "nsites": 12,
    "elements": [
        "Li",
        "O",
        "Zr"
    ],
    "structure": {
        "@module": "pymatgen.core.structure",
        "@class": "Structure",
        "charge": null,
        "lattice": {
            "matrix": [
                [
                    2.69327021,
                    -4.53572963,
                    0.0002748
                ],
                [
                    2.69327021,
                    4.53572963,
                    0.0002748
                ],
                [
                    -2.0333381,
                    0.0,
                    5.0306789
                ]
            ],
            "a": 5.275087466198871,
            "b": 5.275087466198871,
            "c": 5.426066164710565,
            "alpha": 101.02737897323975,
            "beta": 101.02737897323975,
            "gamma": 118.59717859646862,
            "volume": 122.91406725176799
        },
        "sites": [
            {
                "species": [
                    {
                        "element": "Li",
                        "occu": 1
                    }
                ],
                "abc": [
                    0.74137571,
                    0.25862429,
                    0.25
                ],
                "xyz": [
                    2.184935685,
                    -2.1896299196185742,
                    1.2579445249999999
                ],
                "label": "Li",
                "properties": {}
            },
            {
                "species": [
                    {
                        "element": "Li",
                        "occu": 1
                    }
                ],
                "abc": [
                    0.25862429,
                    0.74137571,
                    0.75
                ],
                "xyz": [
                    1.1682666350000002,
                    2.1896299196185742,
                    3.773283975
                ],
                "label": "Li",
                "properties": {}
            },
            {
                "species": [
                    {
                        "element": "Li",
                        "occu": 1
                    }
                ],
                "abc": [
                    0.42479741,
                    0.57520259,
                    0.25
                ],
                "xyz": [
                    2.1849356849999997,
                    0.6821972314314833,
                    1.2579445249999999
                ],
                "label": "Li",
                "properties": {}
            },
            {
                "species": [
                    {
                        "element": "Li",
                        "occu": 1
                    }
                ],
                "abc": [
                    0.57520259,
                    0.42479741,
                    0.75
                ],
                "xyz": [
                    1.1682666349999997,
                    -0.6821972314314833,
                    3.773283975
                ],
                "label": "Li",
                "properties": {}
            },
            {
                "species": [
                    {
                        "element": "Zr",
                        "occu": 1
                    }
                ],
                "abc": [
                    0.09103395,
                    0.90896605,
                    0.25
                ],
                "xyz": [
                    2.184935685,
                    3.709918861298122,
                    1.2579445249999999
                ],
                "label": "Zr",
                "properties": {}
            },
            {
                "species": [
                    {
                        "element": "Zr",
                        "occu": 1
                    }
                ],
                "abc": [
                    0.90896605,
                    0.09103395,
                    0.75
                ],
                "xyz": [
                    1.1682666350000002,
                    -3.709918861298122,
                    3.773283975
                ],
                "label": "Zr",
                "properties": {}
            },
            {
                "species": [
                    {
                        "element": "O",
                        "occu": 1
                    }
                ],
                "abc": [
                    0.0,
                    0.5,
                    0.0
                ],
                "xyz": [
                    1.346635105,
                    2.267864815,
                    0.0001374
                ],
                "label": "O",
                "properties": {}
            },
            {
                "species": [
                    {
                        "element": "O",
                        "occu": 1
                    }
                ],
                "abc": [
                    0.69202918,
                    0.84414253,
                    0.98783293
                ],
                "xyz": [
                    2.1287271709841256,
                    0.6899450287135602,
                    4.969892417662085
                ],
                "label": "O",
                "properties": {}
            },
            {
                "species": [
                    {
                        "element": "O",
                        "occu": 1
                    }
                ],
                "abc": [
                    0.84414253,
                    0.69202918,
                    0.48783293
                ],
                "xyz": [
                    3.145396220984126,
                    -0.6899450287135602,
                    2.454552967662085
                ],
                "label": "O",
                "properties": {}
            },
            {
                "species": [
                    {
                        "element": "O",
                        "occu": 1
                    }
                ],
                "abc": [
                    0.30797082,
                    0.15585747,
                    0.01216707
                ],
                "xyz": [
                    1.224475149015874,
                    -0.6899450287135603,
                    0.061336082337915
                ],
                "label": "O",
                "properties": {}
            },
            {
                "species": [
                    {
                        "element": "O",
                        "occu": 1
                    }
                ],
                "abc": [
                    0.15585747,
                    0.30797082,
                    0.51216707
                ],
                "xyz": [
                    0.2078060990158741,
                    0.6899450287135603,
                    2.576675532337915
                ],
                "label": "O",
                "properties": {}
            },
            {
                "species": [
                    {
                        "element": "O",
                        "occu": 1
                    }
                ],
                "abc": [
                    0.5,
                    0.0,
                    0.5
                ],
                "xyz": [
                    0.3299660550000001,
                    -2.267864815,
                    2.5154768499999998
                ],
                "label": "O",
                "properties": {}
            }
        ]
    },
    "spacegroup": {
        "source": "spglib",
        "symbol": "C2/c",
        "number": 15,
        "point_group": "2/m",
        "crystal_system": "monoclinic",
        "hall": "-C 2yc"
    },
    "dielectric": {
        "epsilon_ionic": [
            [
                25.8678123,
                -0.0,
                -9.37771123
            ],
            [
                -0.0,
                14.77115051,
                0.0
            ],
            [
                -9.37771123,
                0.0,
                22.14222945
            ]
        ],
        "epsilon_ionic_avg": 20.927064086666665,
        "epsilon_ionic_eig": [
            33.56595491965911,
            14.44408683034089,
            14.77115051
        ],
        "epsilon_electronic": [
            [
                3.71255776,
                0.0,
                -0.09320692
            ],
            [
                0.0,
                3.95894048,
                0.0
            ],
            [
                -0.09320406,
                0.0,
                4.22993581
            ]
        ],
        "epsilon_electronic_avg": 3.967144683333333,
        "epsilon_electronic_eig": [
            3.696279014125765,
            4.246214555874235,
            3.95894048
        ]
    },
    "phonon": {
        "lowest_freq": -0.03448212877407033,
        "frequency": [
            -0.03448212877407033,
            -0.01361279399808922,
            -0.010470960968895337,
            2.7519155550252474,
            3.0202206881718427,
            4.851943765869477,
            5.657682965442097,
            6.26152690523145,
            6.504366556518761,
            6.5194407356406066,
            7.141234857862066,
            7.277626829995383,
            7.858766063880516,
            8.005168035569413,
            8.298523861072267,
            8.415433490126203,
            9.462214917848717,
            9.525003905082853,
            9.959873778090975,
            10.379859051888412,
            11.030570379596808,
            11.05229359349439,
            12.148565092432051,
            12.179948759794973,
            12.204884188528814,
            12.711789374719835,
            13.935517729957834,
            14.071029292343816,
            14.148521605734006,
            14.296924135096882,
            14.392138865853537,
            15.023601172264113,
            16.71031716249187,
            16.75196110276073,
            17.701158806867824,
            21.669784689348276
        ]
    },
    "born_effective_charge": {
        "avg_abs_trace": 2.3738019444444443,
        "tensors": [
            [
                [
                    1.06837,
                    1e-05,
                    -0.01712
                ],
                [
                    0.0,
                    1.2034,
                    -0.0
                ],
                [
                    -0.01122,
                    -0.0,
                    1.02088
                ]
            ],
            [
                [
                    1.06837,
                    -1e-05,
                    -0.01712
                ],
                [
                    0.0,
                    1.20342,
                    -0.0
                ],
                [
                    -0.01122,
                    0.0,
                    1.02088
                ]
            ],
            [
                [
                    1.2858,
                    0.0,
                    0.06747
                ],
                [
                    0.0,
                    0.93604,
                    -0.0
                ],
                [
                    0.01423,
                    -1e-05,
                    1.01088
                ]
            ],
            [
                [
                    1.2858,
                    -0.0,
                    0.06747
                ],
                [
                    0.0,
                    0.93602,
                    -0.0
                ],
                [
                    0.01423,
                    1e-05,
                    1.01088
                ]
            ],
            [
                [
                    4.08438,
                    -0.00017,
                    -0.12106
                ],
                [
                    0.0,
                    5.03406,
                    -0.0
                ],
                [
                    -0.07286,
                    -9e-05,
                    5.72042
                ]
            ],
            [
                [
                    4.08438,
                    0.00017,
                    -0.12106
                ],
                [
                    -0.0,
                    5.03405,
                    -0.0
                ],
                [
                    -0.07286,
                    9e-05,
                    5.72042
                ]
            ],
            [
                [
                    -1.92133,
                    -0.81931,
                    -0.64593
                ],
                [
                    -0.80626,
                    -2.9652,
                    -1.18401
                ],
                [
                    -0.69289,
                    -1.16553,
                    -2.61984
                ]
            ],
            [
                [
                    -2.2586,
                    0.10139,
                    0.35829
                ],
                [
                    0.07879,
                    -2.10415,
                    0.58722
                ],
                [
                    0.38142,
                    0.61458,
                    -2.56621
                ]
            ],
            [
                [
                    -2.2586,
                    -0.10139,
                    0.35829
                ],
                [
                    -0.07862,
                    -2.10414,
                    -0.58721
                ],
                [
                    0.38142,
                    -0.61458,
                    -2.56621
                ]
            ],
            [
                [
                    -2.25861,
                    0.10141,
                    0.35835
                ],
                [
                    0.07862,
                    -2.10414,
                    0.58721
                ],
                [
                    0.38132,
                    0.61461,
                    -2.56613
                ]
            ],
            [
                [
                    -2.25861,
                    -0.10141,
                    0.35835
                ],
                [
                    -0.07879,
                    -2.10415,
                    -0.58722
                ],
                [
                    0.38132,
                    -0.61461,
                    -2.56613
                ]
            ],
            [
                [
                    -1.92133,
                    0.81931,
                    -0.64593
                ],
                [
                    0.80626,
                    -2.9652,
                    1.18401
                ],
                [
                    -0.69289,
                    1.16553,
                    -2.61984
                ]
            ]
        ]
    },
    "band_gap": 4.2824,
    "is_direct": true,
    "formula": "Li2ZrO3"
}