{
    "mp_id": "mp-4710",
    "nelements": 3,
    "nsites": 22,
    "elements": [
        "B",
        "Hg",
        "O"
    ],
    "structure": {
        "@module": "pymatgen.core.structure",
        "@class": "Structure",
        "charge": null,
        "lattice": {
            "matrix": [
                [
                    4.46848099,
                    2.57987858,
                    4.40570399
                ],
                [
                    -4.46848099,
                    2.57987858,
                    4.40570399
                ],
                [
                    0.0,
                    -5.15975717,
                    4.40570399
                ]
            ],
            "a": 6.784786178873739,
            "b": 6.784786178873739,
            "c": 6.784786046801205,
            "alpha": 82.38684071591508,
            "beta": 82.38684071591508,
            "gamma": 82.38684321265481,
            "volume": 304.73739223903783
        },
        "sites": [
            {
                "species": [
                    {
                        "element": "Hg",
                        "occu": 1
                    }
                ],
                "abc": [
                    0.10351954,
                    0.75,
                    0.39648046
                ],
                "xyz": [
                    -2.8887856459164554,
                    0.15623388260755533,
                    5.5071299875
                ],
                "label": "Hg",
                "properties": {}
            },
            {
                "species": [
                    {
                        "element": "Hg",
                        "occu": 1
                    }
                ],
                "abc": [
                    0.75,
                    0.39648046,
                    0.10351954
                ],
                "xyz": [
                    1.5796953440835446,
                    2.4236446923924446,
                    5.507129987500001
                ],
                "label": "Hg",
                "properties": {}
            },
            {
                "species": [
                    {
                        "element": "Hg",
                        "occu": 1
                    }
                ],
                "abc": [
                    0.39648046,
                    0.10351954,
                    0.75
                ],
                "xyz": [
                    1.3090903018329105,
                    -2.5798785875,
                    5.507129987500001
                ],
                "label": "Hg",
                "properties": {}
            },
            {
                "species": [
                    {
                        "element": "Hg",
                        "occu": 1
                    }
                ],
                "abc": [
                    0.89648046,
                    0.25,
                    0.60351954
                ],
                "xyz": [
                    2.888785645916456,
                    -0.15623389260755483,
                    7.7099819825
                ],
                "label": "Hg",
                "properties": {}
            },
            {
                "species": [
                    {
                        "element": "Hg",
                        "occu": 1
                    }
                ],
                "abc": [
                    0.25,
                    0.60351954,
                    0.89648046
                ],
                "xyz": [
                    -1.5796953440835444,
                    -2.423644702392445,
                    7.7099819825
                ],
                "label": "Hg",
                "properties": {}
            },
            {
                "species": [
                    {
                        "element": "Hg",
                        "occu": 1
                    }
                ],
                "abc": [
                    0.60351954,
                    0.89648046,
                    0.25
                ],
                "xyz": [
                    -1.3090903018329114,
                    2.5798785774999997,
                    7.7099819825
                ],
                "label": "Hg",
                "properties": {}
            },
            {
                "species": [
                    {
                        "element": "B",
                        "occu": 1
                    }
                ],
                "abc": [
                    0.11057745,
                    0.11057745,
                    0.11057745
                ],
                "xyz": [
                    0.0,
                    -1.1057745830100885e-09,
                    1.4615145380070764
                ],
                "label": "B",
                "properties": {}
            },
            {
                "species": [
                    {
                        "element": "B",
                        "occu": 1
                    }
                ],
                "abc": [
                    0.88942255,
                    0.88942255,
                    0.88942255
                ],
                "xyz": [
                    0.0,
                    -8.894224912125992e-09,
                    11.755597431992925
                ],
                "label": "B",
                "properties": {}
            },
            {
                "species": [
                    {
                        "element": "B",
                        "occu": 1
                    }
                ],
                "abc": [
                    0.61057745,
                    0.61057745,
                    0.61057745
                ],
                "xyz": [
                    0.0,
                    -6.105774552622734e-09,
                    8.070070523007077
                ],
                "label": "B",
                "properties": {}
            },
            {
                "species": [
                    {
                        "element": "B",
                        "occu": 1
                    }
                ],
                "abc": [
                    0.38942255,
                    0.38942255,
                    0.38942255
                ],
                "xyz": [
                    0.0,
                    -3.894225386602557e-09,
                    5.147041446992923
                ],
                "label": "B",
                "properties": {}
            },
            {
                "species": [
                    {
                        "element": "O",
                        "occu": 1
                    }
                ],
                "abc": [
                    0.96313596,
                    0.71160238,
                    0.99299319
                ],
                "xyz": [
                    1.1239730205766447,
                    -0.8029821613929151,
                    11.753235445969805
                ],
                "label": "O",
                "properties": {}
            },
            {
                "species": [
                    {
                        "element": "O",
                        "occu": 1
                    }
                ],
                "abc": [
                    0.71160238,
                    0.99299319,
                    0.96313596
                ],
                "xyz": [
                    -1.2573894852457022,
                    -0.5718980766889423,
                    11.753235445969805
                ],
                "label": "O",
                "properties": {}
            },
            {
                "species": [
                    {
                        "element": "O",
                        "occu": 1
                    }
                ],
                "abc": [
                    0.99299319,
                    0.96313596,
                    0.71160238
                ],
                "xyz": [
                    0.13341646466905743,
                    1.3748802114045424,
                    11.753235445969805
                ],
                "label": "O",
                "properties": {}
            },
            {
                "species": [
                    {
                        "element": "O",
                        "occu": 1
                    }
                ],
                "abc": [
                    0.78839762,
                    0.53686404,
                    0.50700681
                ],
                "xyz": [
                    1.1239730205766443,
                    0.8029821463929152,
                    8.072432509030197
                ],
                "label": "O",
                "properties": {}
            },
            {
                "species": [
                    {
                        "element": "O",
                        "occu": 1
                    }
                ],
                "abc": [
                    0.50700681,
                    0.78839762,
                    0.53686404
                ],
                "xyz": [
                    -1.2573894852457022,
                    0.5718980616889424,
                    8.072432509030195
                ],
                "label": "O",
                "properties": {}
            },
            {
                "species": [
                    {
                        "element": "O",
                        "occu": 1
                    }
                ],
                "abc": [
                    0.53686404,
                    0.50700681,
                    0.78839762
                ],
                "xyz": [
                    0.13341646466905788,
                    -1.3748802264045423,
                    8.072432509030195
                ],
                "label": "O",
                "properties": {}
            },
            {
                "species": [
                    {
                        "element": "O",
                        "occu": 1
                    }
                ],
                "abc": [
                    0.28839762,
                    0.00700681,
                    0.03686404
                ],
                "xyz": [
                    1.257389485245702,
                    0.5718980666889426,
                    1.4638765240301954
                ],
                "label": "O",
                "properties": {}
            },
            {
                "species": [
                    {
                        "element": "O",
                        "occu": 1
                    }
                ],
                "abc": [
                    0.03686404,
                    0.28839762,
                    0.00700681
                ],
                "xyz": [
                    -1.1239730205766443,
                    0.8029821513929152,
                    1.4638765240301954
                ],
                "label": "O",
                "properties": {}
            },
            {
                "species": [
                    {
                        "element": "O",
                        "occu": 1
                    }
                ],
                "abc": [
                    0.00700681,
                    0.03686404,
                    0.28839762
                ],
                "xyz": [
                    -0.1334164646690577,
                    -1.3748802214045424,
                    1.4638765240301954
                ],
                "label": "O",
                "properties": {}
            },
            {
                "species": [
                    {
                        "element": "O",
                        "occu": 1
                    }
                ],
                "abc": [
                    0.49299319,
                    0.21160238,
                    0.46313596
                ],
                "xyz": [
                    1.2573894852457017,
                    -0.5718980716889424,
                    5.1446794609698046
                ],
                "label": "O",
                "properties": {}
            },
            {
                "species": [
                    {
                        "element": "O",
                        "occu": 1
                    }
                ],
                "abc": [
                    0.46313596,
                    0.49299319,
                    0.21160238
                ],
                "xyz": [
                    -0.13341646466905788,
                    1.3748802164045424,
                    5.144679460969805
                ],
                "label": "O",
                "properties": {}
            },
            {
                "species": [
                    {
                        "element": "O",
                        "occu": 1
                    }
                ],
                "abc": [
                    0.21160238,
                    0.46313596,
                    0.49299319
                ],
                "xyz": [
                    -1.1239730205766438,
                    -0.8029821563929149,
                    5.1446794609698046
                ],
                "label": "O",
                "properties": {}
            }
        ]
    },
    "spacegroup": {
        "source": "spglib",
        "symbol": "R-3c",
        "number": 167,
        "point_group": "-3m",
        "crystal_system": "trigonal",
        "hall": "-R 3 2\"c"
    },
    "dielectric": {
        "epsilon_ionic": [
            [
                2.8894699,
                -3e-08,
                0.0
            ],
            [
                -3e-08,
                2.88947925,
                7.59e-06
            ],
            [
                0.0,
                7.59e-06,
                4.72406759
            ]
        ],
        "epsilon_ionic_avg": 3.5010055799999997,
        "epsilon_ionic_eig": [
            2.889469899903745,
            2.889479250064854,
            4.724067590031401
        ],
        "epsilon_electronic": [
            [
                4.69922701,
                0.0,
                0.0
            ],
            [
                0.0,
                4.69922686,
                2.5e-07
            ],
            [
                0.0,
                2.5e-07,
                3.26060985
            ]
        ],
        "epsilon_electronic_avg": 4.219687906666667,
        "epsilon_electronic_eig": [
            3.2606098499999563,
            4.699226860000043,
            4.69922701
        ]
    },
    "phonon": {
        "lowest_freq": -0.024863432976247057,
        "frequency": [
            -0.024863432976247057,
            -0.02486343258305898,
            -0.015156165960143865,
            1.3724356247168885,
            1.3724356362919365,
            1.43307236173555,
            1.4330724069293834,
            1.7146836397145067,
            1.8759595078945677,
            1.8759595469785877,
            1.9103554549694988,
            2.2403019451495703,
            2.3840826811630227,
            2.384082706791342,
            2.4436529472879793,
            2.4436530022958194,
            2.4859433882801967,
            3.039176003094354,
            3.0813860117532497,
            4.050274681361961,
            4.934370212820123,
            4.934370272256311,
            5.044709638595872,
            5.372631077218306,
            5.372631077218306,
            6.197219506109765,
            6.1972195652653586,
            6.459981316670469,
            6.661700979289794,
            6.661700997633466,
            9.134792948044083,
            9.134793068440965,
            9.1827430188994,
            9.182743045514554,
            10.380266241711503,
            10.380266300573222,
            10.882147906490346,
            10.88214803001382,
            12.413696067365425,
            13.430033326522947,
            13.93133450752236,
            14.11030161069341,
            18.644074288483473,
            18.862946290039314,
            18.862946419605567,
            18.94746515403454,
            18.947465412011134,
            18.980590447690375,
            19.645782950739775,
            19.97023294043778,
            20.169678500569333,
            20.16967874291343,
            20.18041427407453,
            20.18041445573591,
            26.918832181903902,
            27.122993599204804,
            27.450918298263417,
            27.57502214196949,
            36.94971675923364,
            36.94971712302552,
            37.12071587055626,
            37.12071639727051,
            37.492234126985544,
            37.492234518106756,
            38.832272302446064,
            38.83227283741375
        ]
    },
    "born_effective_charge": {
        "avg_abs_trace": 1.856444393939394,
        "tensors": [
            [
                [
                    2.47183,
                    -0.36818,
                    -0.26668
                ],
                [
                    -0.36826,
                    2.04664,
                    0.15397
                ],
                [
                    -0.12246,
                    0.07066,
                    1.68771
                ]
            ],
            [
                [
                    2.47183,
                    0.36818,
                    0.26668
                ],
                [
                    0.36815,
                    2.04665,
                    0.15394
                ],
                [
                    0.12243,
                    0.07072,
                    1.68771
                ]
            ],
            [
                [
                    1.8341,
                    0.0,
                    0.0
                ],
                [
                    -0.00013,
                    2.68439,
                    -0.3079
                ],
                [
                    3e-05,
                    -0.14139,
                    1.68771
                ]
            ],
            [
                [
                    2.47179,
                    -0.36822,
                    -0.26663
                ],
                [
                    -0.36815,
                    2.04665,
                    0.15394
                ],
                [
                    -0.12243,
                    0.07072,
                    1.68771
                ]
            ],
            [
                [
                    2.47179,
                    0.36822,
                    0.26663
                ],
                [
                    0.36826,
                    2.04664,
                    0.15397
                ],
                [
                    0.12246,
                    0.07066,
                    1.68771
                ]
            ],
            [
                [
                    1.83401,
                    0.0,
                    0.0
                ],
                [
                    0.00013,
                    2.68439,
                    -0.3079
                ],
                [
                    -3e-05,
                    -0.14139,
                    1.68771
                ]
            ],
            [
                [
                    2.78318,
                    -1.10893,
                    1e-05
                ],
                [
                    1.10896,
                    2.78324,
                    3e-05
                ],
                [
                    0.0,
                    0.0,
                    0.43988
                ]
            ],
            [
                [
                    2.78333,
                    -1.109,
                    -1e-05
                ],
                [
                    1.10898,
                    2.78328,
                    -3e-05
                ],
                [
                    0.0,
                    0.0,
                    0.43995
                ]
            ],
            [
                [
                    2.78333,
                    1.109,
                    1e-05
                ],
                [
                    -1.10896,
                    2.78324,
                    3e-05
                ],
                [
                    0.0,
                    0.0,
                    0.43988
                ]
            ],
            [
                [
                    2.78318,
                    1.10893,
                    -1e-05
                ],
                [
                    -1.10898,
                    2.78328,
                    -3e-05
                ],
                [
                    0.0,
                    0.0,
                    0.43995
                ]
            ],
            [
                [
                    -2.42906,
                    0.74058,
                    -0.00371
                ],
                [
                    0.03765,
                    -1.68584,
                    -0.25962
                ],
                [
                    -0.0353,
                    -0.17364,
                    -0.99047
                ]
            ],
            [
                [
                    -2.20858,
                    -0.16489,
                    -0.22297
                ],
                [
                    -0.86779,
                    -1.90644,
                    0.13296
                ],
                [
                    -0.13273,
                    0.11739,
                    -0.99047
                ]
            ],
            [
                [
                    -1.53451,
                    0.47892,
                    0.22671
                ],
                [
                    -0.22419,
                    -2.58022,
                    0.12661
                ],
                [
                    0.16803,
                    0.05625,
                    -0.99047
                ]
            ],
            [
                [
                    -2.42906,
                    -0.74058,
                    0.00371
                ],
                [
                    -0.03766,
                    -1.68567,
                    -0.25961
                ],
                [
                    0.03521,
                    -0.17358,
                    -0.99051
                ]
            ],
            [
                [
                    -2.20858,
                    0.16489,
                    0.22297
                ],
                [
                    0.86782,
                    -1.90599,
                    0.13301
                ],
                [
                    0.13272,
                    0.11728,
                    -0.99051
                ]
            ],
            [
                [
                    -1.53451,
                    -0.47892,
                    -0.22671
                ],
                [
                    0.22414,
                    -2.58005,
                    0.12664
                ],
                [
                    -0.16793,
                    0.0563,
                    -0.99051
                ]
            ],
            [
                [
                    -2.20849,
                    -0.16497,
                    -0.22304
                ],
                [
                    -0.86782,
                    -1.90599,
                    0.13301
                ],
                [
                    -0.13272,
                    0.11728,
                    -0.99051
                ]
            ],
            [
                [
                    -2.42887,
                    0.74045,
                    -0.00364
                ],
                [
                    0.03766,
                    -1.68567,
                    -0.25961
                ],
                [
                    -0.03521,
                    -0.17358,
                    -0.99051
                ]
            ],
            [
                [
                    -1.53466,
                    0.47853,
                    0.22663
                ],
                [
                    -0.22414,
                    -2.58005,
                    0.12664
                ],
                [
                    0.16793,
                    0.0563,
                    -0.99051
                ]
            ],
            [
                [
                    -2.20849,
                    0.16497,
                    0.22304
                ],
                [
                    0.86779,
                    -1.90644,
                    0.13296
                ],
                [
                    0.13273,
                    0.11739,
                    -0.99047
                ]
            ],
            [
                [
                    -1.53466,
                    -0.47853,
                    -0.22663
                ],
                [
                    0.22419,
                    -2.58022,
                    0.12661
                ],
                [
                    -0.16803,
                    0.05625,
                    -0.99047
                ]
            ],
            [
                [
                    -2.42887,
                    -0.74045,
                    0.00364
                ],
                [
                    -0.03765,
                    -1.68584,
                    -0.25962
                ],
                [
                    0.0353,
                    -0.17364,
                    -0.99047
                ]
            ]
        ]
    },
    "band_gap": 2.5873,
    "is_direct": true,
    "formula": "Hg3(BO3)2"
}