{
    "mp_id": "mp-4429",
    "nelements": 3,
    "nsites": 30,
    "elements": [
        "Ca",
        "O",
        "Si"
    ],
    "structure": {
        "@module": "pymatgen.core.structure",
        "@class": "Structure",
        "charge": null,
        "lattice": {
            "matrix": [
                [
                    7.06889544,
                    -0.00031372,
                    0.00089261
                ],
                [
                    -0.00567449,
                    7.31535047,
                    -0.00041631
                ],
                [
                    -0.74457872,
                    -1.83975846,
                    7.65430866
                ]
            ],
            "a": 7.068895503317732,
            "b": 7.315352682685914,
            "c": 7.9074363559860155,
            "alpha": 103.45277265159314,
            "beta": 95.39545144751546,
            "gamma": 90.04698733055899,
            "volume": 395.8148244031407
        },
        "sites": [
            {
                "species": [
                    {
                        "element": "Ca",
                        "occu": 1
                    }
                ],
                "abc": [
                    0.52944296,
                    0.75134542,
                    0.50662832
                ],
                "xyz": [
                    3.3610887575904167,
                    4.56411523668835,
                    3.8780493306459767
                ],
                "label": "Ca",
                "properties": {}
            },
            {
                "species": [
                    {
                        "element": "Ca",
                        "occu": 1
                    }
                ],
                "abc": [
                    0.47055704,
                    0.24865458,
                    0.49337168
                ],
                "xyz": [
                    2.9575534724095838,
                    0.9111630533116511,
                    3.776735629354023
                ],
                "label": "Ca",
                "properties": {}
            },
            {
                "species": [
                    {
                        "element": "Ca",
                        "occu": 1
                    }
                ],
                "abc": [
                    0.76215469,
                    0.92865835,
                    0.20469085
                ],
                "xyz": [
                    5.229913699106412,
                    6.416640471000487,
                    1.5670606429179135
                ],
                "label": "Ca",
                "properties": {}
            },
            {
                "species": [
                    {
                        "element": "Ca",
                        "occu": 1
                    }
                ],
                "abc": [
                    0.23784531,
                    0.07134165,
                    0.79530915
                ],
                "xyz": [
                    1.08872853089359,
                    -0.9413621810004869,
                    6.087724317082087
                ],
                "label": "Ca",
                "properties": {}
            },
            {
                "species": [
                    {
                        "element": "Ca",
                        "occu": 1
                    }
                ],
                "abc": [
                    0.75954171,
                    0.42414712,
                    0.20092744
                ],
                "xyz": [
                    5.217107815629757,
                    2.732888592629743,
                    1.5384620418618664
                ],
                "label": "Ca",
                "properties": {}
            },
            {
                "species": [
                    {
                        "element": "Ca",
                        "occu": 1
                    }
                ],
                "abc": [
                    0.24045829,
                    0.57585288,
                    0.79907256
                ],
                "xyz": [
                    1.101534414370243,
                    2.7423896973702577,
                    6.116322918138134
                ],
                "label": "Ca",
                "properties": {}
            },
            {
                "species": [
                    {
                        "element": "Si",
                        "occu": 1
                    }
                ],
                "abc": [
                    0.05623378,
                    0.72413874,
                    0.39759013
                ],
                "xyz": [
                    0.09736444289718699,
                    4.565841225062747,
                    3.043026303825042
                ],
                "label": "Si",
                "properties": {}
            },
            {
                "species": [
                    {
                        "element": "Si",
                        "occu": 1
                    }
                ],
                "abc": [
                    0.94376622,
                    0.27586126,
                    0.60240987
                ],
                "xyz": [
                    6.221277787102814,
                    0.9094370649372534,
                    4.611758656174957
                ],
                "label": "Si",
                "properties": {}
            },
            {
                "species": [
                    {
                        "element": "Si",
                        "occu": 1
                    }
                ],
                "abc": [
                    0.27085157,
                    0.952484,
                    0.18354782
                ],
                "xyz": [
                    1.7725507662822904,
                    6.629985650853383,
                    1.4047769043559788
                ],
                "label": "Si",
                "properties": {}
            },
            {
                "species": [
                    {
                        "element": "Si",
                        "occu": 1
                    }
                ],
                "abc": [
                    0.72914843,
                    0.047516,
                    0.81645218
                ],
                "xyz": [
                    4.54609146371771,
                    -1.1547073608533824,
                    6.250008055644021
                ],
                "label": "Si",
                "properties": {}
            },
            {
                "species": [
                    {
                        "element": "Si",
                        "occu": 1
                    }
                ],
                "abc": [
                    0.27036829,
                    0.38904794,
                    0.18429027
                ],
                "xyz": [
                    1.7717789103114927,
                    2.5068876274634087,
                    1.4106939785061738
                ],
                "label": "Si",
                "properties": {}
            },
            {
                "species": [
                    {
                        "element": "Si",
                        "occu": 1
                    }
                ],
                "abc": [
                    0.72963171,
                    0.61095206,
                    0.81570973
                ],
                "xyz": [
                    4.546863319688507,
                    2.9683906625365917,
                    6.244090981493827
                ],
                "label": "Si",
                "properties": {}
            },
            {
                "species": [
                    {
                        "element": "O",
                        "occu": 1
                    }
                ],
                "abc": [
                    0.09069151,
                    0.51117541,
                    0.2721128
                ],
                "xyz": [
                    0.43557874141380754,
                    3.2387769981811374,
                    2.0827035062506516
                ],
                "label": "O",
                "properties": {}
            },
            {
                "species": [
                    {
                        "element": "O",
                        "occu": 1
                    }
                ],
                "abc": [
                    0.90930849,
                    0.48882459,
                    0.7278872
                ],
                "xyz": [
                    5.883063488586193,
                    2.236501291818862,
                    5.572081453749347
                ],
                "label": "O",
                "properties": {}
            },
            {
                "species": [
                    {
                        "element": "O",
                        "occu": 1
                    }
                ],
                "abc": [
                    0.09158422,
                    0.8711731,
                    0.26886465
                ],
                "xyz": [
                    0.4422649151394898,
                    5.878261800302421,
                    2.057692089780222
                ],
                "label": "O",
                "properties": {}
            },
            {
                "species": [
                    {
                        "element": "O",
                        "occu": 1
                    }
                ],
                "abc": [
                    0.90841578,
                    0.1288269,
                    0.73113535
                ],
                "xyz": [
                    5.876377314860511,
                    -0.40298351030241963,
                    5.597092870219778
                ],
                "label": "O",
                "properties": {}
            },
            {
                "species": [
                    {
                        "element": "O",
                        "occu": 1
                    }
                ],
                "abc": [
                    0.23032147,
                    0.17951383,
                    0.22066638
                ],
                "xyz": [
                    1.4627962488164665,
                    0.9071614847678571,
                    1.68917943724962
                ],
                "label": "O",
                "properties": {}
            },
            {
                "species": [
                    {
                        "element": "O",
                        "occu": 1
                    }
                ],
                "abc": [
                    0.76967853,
                    0.82048617,
                    0.77933362
                ],
                "xyz": [
                    4.855845981183533,
                    4.568116805232143,
                    5.965605522750379
                ],
                "label": "O",
                "properties": {}
            },
            {
                "species": [
                    {
                        "element": "O",
                        "occu": 1
                    }
                ],
                "abc": [
                    0.82780225,
                    0.72711765,
                    0.40266844
                ],
                "xyz": [
                    5.547703176773395,
                    4.578048075485922,
                    3.0825847256181915
                ],
                "label": "O",
                "properties": {}
            },
            {
                "species": [
                    {
                        "element": "O",
                        "occu": 1
                    }
                ],
                "abc": [
                    0.17219775,
                    0.27288235,
                    0.59733156
                ],
                "xyz": [
                    0.7709390532266055,
                    0.8972302145140769,
                    4.572200234381809
                ],
                "label": "O",
                "properties": {}
            },
            {
                "species": [
                    {
                        "element": "O",
                        "occu": 1
                    }
                ],
                "abc": [
                    0.26518465,
                    0.86625423,
                    0.97685996
                ],
                "xyz": [
                    1.1422978735413523,
                    4.539683719196329,
                    7.477063727607199
                ],
                "label": "O",
                "properties": {}
            },
            {
                "species": [
                    {
                        "element": "O",
                        "occu": 1
                    }
                ],
                "abc": [
                    0.73481535,
                    0.13374577,
                    0.02314004
                ],
                "xyz": [
                    5.176344356458649,
                    0.9355945708036717,
                    0.17772123239280121
                ],
                "label": "O",
                "properties": {}
            },
            {
                "species": [
                    {
                        "element": "O",
                        "occu": 1
                    }
                ],
                "abc": [
                    0.26632098,
                    0.37350576,
                    0.97900979
                ],
                "xyz": [
                    1.1515258500925998,
                    0.9311004431705385,
                    7.493725340408793
                ],
                "label": "O",
                "properties": {}
            },
            {
                "species": [
                    {
                        "element": "O",
                        "occu": 1
                    }
                ],
                "abc": [
                    0.73367902,
                    0.62649424,
                    0.02099021
                ],
                "xyz": [
                    5.1671163799074,
                    4.544177846829461,
                    0.1610596195912064
                ],
                "label": "O",
                "properties": {}
            },
            {
                "species": [
                    {
                        "element": "O",
                        "occu": 1
                    }
                ],
                "abc": [
                    0.53386657,
                    0.53340242,
                    0.69485655
                ],
                "xyz": [
                    3.2534447749605597,
                    2.6234899428768843,
                    5.3189009820003
                ],
                "label": "O",
                "properties": {}
            },
            {
                "species": [
                    {
                        "element": "O",
                        "occu": 1
                    }
                ],
                "abc": [
                    0.46613343,
                    0.46659758,
                    0.30514345
                ],
                "xyz": [
                    3.065197455039441,
                    2.851788347123116,
                    2.3358839779996994
                ],
                "label": "O",
                "properties": {}
            },
            {
                "species": [
                    {
                        "element": "O",
                        "occu": 1
                    }
                ],
                "abc": [
                    0.53303654,
                    0.06561818,
                    0.69723519
                ],
                "xyz": [
                    3.2484607319439927,
                    -0.8028915797319918,
                    5.337301829115199
                ],
                "label": "O",
                "properties": {}
            },
            {
                "species": [
                    {
                        "element": "O",
                        "occu": 1
                    }
                ],
                "abc": [
                    0.46696346,
                    0.93438182,
                    0.30276481
                ],
                "xyz": [
                    3.070181498056008,
                    6.278169869731991,
                    2.317483130884801
                ],
                "label": "O",
                "properties": {}
            },
            {
                "species": [
                    {
                        "element": "O",
                        "occu": 1
                    }
                ],
                "abc": [
                    0.79760092,
                    0.23004473,
                    0.42740293
                ],
                "xyz": [
                    5.318616993264218,
                    0.8962894440696131,
                    3.272090125044029
                ],
                "label": "O",
                "properties": {}
            },
            {
                "species": [
                    {
                        "element": "O",
                        "occu": 1
                    }
                ],
                "abc": [
                    0.20239908,
                    0.76995527,
                    0.57259707
                ],
                "xyz": [
                    1.0000252367357825,
                    4.578988845930387,
                    4.382694834955972
                ],
                "label": "O",
                "properties": {}
            }
        ]
    },
    "spacegroup": {
        "source": "spglib",
        "symbol": "P-1",
        "number": 2,
        "point_group": "-1",
        "crystal_system": "triclinic",
        "hall": "-P 1"
    },
    "dielectric": {
        "epsilon_ionic": [
            [
                4.29542364,
                0.00273772,
                -0.10612225
            ],
            [
                0.00273772,
                5.01281841,
                0.07103669
            ],
            [
                -0.10612225,
                0.07103669,
                4.45998335
            ]
        ],
        "epsilon_ionic_avg": 4.589408466666666,
        "epsilon_ionic_eig": [
            4.241917583277644,
            4.504348648605642,
            5.021959168116711
        ],
        "epsilon_electronic": [
            [
                2.86258984,
                -0.00131915,
                0.02187042
            ],
            [
                -0.00131972,
                2.90449307,
                0.00035238
            ],
            [
                0.02186943,
                0.0003521,
                2.89059715
            ]
        ],
        "epsilon_electronic_avg": 2.885893353333334,
        "epsilon_electronic_eig": [
            2.8505917098784455,
            2.902510479576774,
            2.9045778705447822
        ]
    },
    "phonon": {
        "lowest_freq": -0.08634049726810977,
        "frequency": [
            -0.08634049726810977,
            -0.050194044580601525,
            -0.03709664466398407,
            2.4807297202173246,
            3.122717074490821,
            3.2305513128691583,
            3.2650990219646183,
            3.2932181443810804,
            3.983952159550616,
            4.372562916644536,
            4.404094937172863,
            4.513338933526156,
            4.591311038087903,
            4.871357445696814,
            4.904319350672256,
            4.922479803097475,
            5.189579797075622,
            5.205092981275944,
            5.557457590896572,
            5.83378953152122,
            6.0533014617180045,
            6.215344421855142,
            6.4084969847123086,
            6.502623022209178,
            6.834460754913799,
            6.877649521901372,
            7.247465251843975,
            7.278936425530839,
            7.339728968457245,
            7.758609174438232,
            7.789536504635891,
            8.009707000333467,
            8.08383188448866,
            8.107506850000574,
            8.419225928116505,
            8.476714607475447,
            8.704350356373164,
            8.796123167017218,
            8.83325858089642,
            9.247073896724903,
            9.477517330936829,
            9.492773179647427,
            9.575792536344176,
            9.73179199835039,
            9.77347206275882,
            9.927923333135316,
            11.046939009859946,
            11.166594716423615,
            11.276060356911902,
            11.680111801420995,
            11.75608399457642,
            11.91529483889216,
            12.692181350082466,
            12.720657324624307,
            12.905693719160066,
            13.082645904283245,
            13.333771637257302,
            13.560487569394658,
            13.656112356055571,
            13.950718998113306,
            14.175544988292796,
            14.41757089414187,
            14.610713563919049,
            14.677061141311828,
            16.027761675637027,
            16.551771763266977,
            18.361249773872125,
            18.532894124119856,
            19.95400770750102,
            20.019274121154375,
            20.082362130445755,
            20.665033154328828,
            26.05419592917464,
            26.106664623032714,
            26.355295244363553,
            26.510148023571812,
            27.56260232158541,
            27.58510637096082,
            27.92610999262779,
            28.259905039780506,
            29.21702139321365,
            29.427444093622153,
            29.639826532709307,
            29.866758076541693,
            29.9854396899964,
            30.03318737336139,
            30.52687392840205,
            31.302636446043294,
            31.570772080876743,
            31.617855576216943
        ]
    },
    "born_effective_charge": {
        "avg_abs_trace": 2.184277,
        "tensors": [
            [
                [
                    2.40674,
                    0.00419,
                    -0.00853
                ],
                [
                    0.00198,
                    2.38759,
                    -0.00282
                ],
                [
                    0.0141,
                    -0.00073,
                    2.36645
                ]
            ],
            [
                [
                    2.40673,
                    0.00409,
                    -0.00859
                ],
                [
                    0.002,
                    2.38768,
                    -0.00278
                ],
                [
                    0.014,
                    -0.00079,
                    2.3664
                ]
            ],
            [
                [
                    2.30277,
                    -0.14001,
                    0.03986
                ],
                [
                    -0.12454,
                    2.45953,
                    -0.02405
                ],
                [
                    0.01084,
                    0.07328,
                    2.36512
                ]
            ],
            [
                [
                    2.30272,
                    -0.13983,
                    0.03988
                ],
                [
                    -0.12452,
                    2.4595,
                    -0.02402
                ],
                [
                    0.01095,
                    0.07314,
                    2.36513
                ]
            ],
            [
                [
                    2.30839,
                    0.1351,
                    0.03083
                ],
                [
                    0.12179,
                    2.55531,
                    0.02655
                ],
                [
                    0.01078,
                    -0.06445,
                    2.32214
                ]
            ],
            [
                [
                    2.30839,
                    0.13504,
                    0.03091
                ],
                [
                    0.12185,
                    2.5553,
                    0.02655
                ],
                [
                    0.01075,
                    -0.06432,
                    2.32209
                ]
            ],
            [
                [
                    3.1778,
                    -0.00598,
                    0.03693
                ],
                [
                    -0.00518,
                    3.00929,
                    0.00149
                ],
                [
                    0.31949,
                    -0.00038,
                    2.9521
                ]
            ],
            [
                [
                    3.17777,
                    -0.00601,
                    0.03694
                ],
                [
                    -0.00521,
                    3.0093,
                    0.00148
                ],
                [
                    0.31948,
                    -0.00038,
                    2.95211
                ]
            ],
            [
                [
                    2.91385,
                    0.19022,
                    0.02975
                ],
                [
                    0.14692,
                    3.17935,
                    -0.02095
                ],
                [
                    -0.0551,
                    -0.05974,
                    3.20023
                ]
            ],
            [
                [
                    2.91384,
                    0.19024,
                    0.02974
                ],
                [
                    0.14693,
                    3.17934,
                    -0.02095
                ],
                [
                    -0.05508,
                    -0.05977,
                    3.20022
                ]
            ],
            [
                [
                    2.89588,
                    -0.19491,
                    0.04684
                ],
                [
                    -0.15533,
                    3.16766,
                    0.02653
                ],
                [
                    -0.0564,
                    0.06223,
                    3.1761
                ]
            ],
            [
                [
                    2.89588,
                    -0.19489,
                    0.04684
                ],
                [
                    -0.15532,
                    3.16767,
                    0.02654
                ],
                [
                    -0.05641,
                    0.06225,
                    3.17611
                ]
            ],
            [
                [
                    -2.07001,
                    0.46994,
                    0.3868
                ],
                [
                    0.55834,
                    -1.87574,
                    -0.69312
                ],
                [
                    0.31376,
                    -0.54103,
                    -1.54036
                ]
            ],
            [
                [
                    -2.06996,
                    0.46994,
                    0.38678
                ],
                [
                    0.55834,
                    -1.87577,
                    -0.69311
                ],
                [
                    0.31381,
                    -0.54101,
                    -1.54037
                ]
            ],
            [
                [
                    -2.08631,
                    -0.47079,
                    0.38835
                ],
                [
                    -0.55271,
                    -1.86931,
                    0.69416
                ],
                [
                    0.31316,
                    0.55167,
                    -1.55122
                ]
            ],
            [
                [
                    -2.08632,
                    -0.47075,
                    0.38833
                ],
                [
                    -0.5527,
                    -1.86931,
                    0.69415
                ],
                [
                    0.31314,
                    0.55168,
                    -1.55125
                ]
            ],
            [
                [
                    -1.12996,
                    0.00654,
                    -0.07178
                ],
                [
                    -0.00014,
                    -2.99873,
                    -0.00133
                ],
                [
                    -0.09905,
                    -0.00435,
                    -1.39994
                ]
            ],
            [
                [
                    -1.12996,
                    0.00655,
                    -0.07178
                ],
                [
                    -0.0001,
                    -2.99872,
                    -0.00132
                ],
                [
                    -0.09912,
                    -0.00435,
                    -1.39999
                ]
            ],
            [
                [
                    -2.4308,
                    0.00732,
                    0.03899
                ],
                [
                    0.0037,
                    -1.58348,
                    0.01359
                ],
                [
                    0.08926,
                    0.00944,
                    -1.47857
                ]
            ],
            [
                [
                    -2.43101,
                    0.00729,
                    0.03894
                ],
                [
                    0.00378,
                    -1.58347,
                    0.01354
                ],
                [
                    0.08922,
                    0.00937,
                    -1.47858
                ]
            ],
            [
                [
                    -1.19842,
                    -0.01664,
                    0.01558
                ],
                [
                    -0.00911,
                    -1.82876,
                    -0.15699
                ],
                [
                    0.02834,
                    -0.15257,
                    -2.4213
                ]
            ],
            [
                [
                    -1.19844,
                    -0.01672,
                    0.01561
                ],
                [
                    -0.00914,
                    -1.82876,
                    -0.15687
                ],
                [
                    0.02833,
                    -0.15248,
                    -2.42104
                ]
            ],
            [
                [
                    -1.15473,
                    0.01912,
                    -0.01911
                ],
                [
                    0.01135,
                    -1.75529,
                    0.16064
                ],
                [
                    -0.00332,
                    0.15215,
                    -2.37335
                ]
            ],
            [
                [
                    -1.15477,
                    0.01915,
                    -0.01903
                ],
                [
                    0.01133,
                    -1.75524,
                    0.16046
                ],
                [
                    -0.00319,
                    0.15216,
                    -2.37347
                ]
            ],
            [
                [
                    -2.06539,
                    -0.11327,
                    -0.32949
                ],
                [
                    -0.17469,
                    -1.67503,
                    -0.17033
                ],
                [
                    -0.2396,
                    -0.11816,
                    -1.79675
                ]
            ],
            [
                [
                    -2.06538,
                    -0.11324,
                    -0.32955
                ],
                [
                    -0.17473,
                    -1.67504,
                    -0.17035
                ],
                [
                    -0.23971,
                    -0.11811,
                    -1.79684
                ]
            ],
            [
                [
                    -2.08612,
                    0.10926,
                    -0.31069
                ],
                [
                    0.17605,
                    -1.65799,
                    0.17102
                ],
                [
                    -0.2342,
                    0.12011,
                    -1.77571
                ]
            ],
            [
                [
                    -2.08617,
                    0.10931,
                    -0.31068
                ],
                [
                    0.17603,
                    -1.65798,
                    0.17103
                ],
                [
                    -0.23422,
                    0.12014,
                    -1.7756
                ]
            ],
            [
                [
                    -1.7835,
                    -9e-05,
                    -0.27433
                ],
                [
                    0.00151,
                    -1.51444,
                    -0.02436
                ],
                [
                    -0.41199,
                    -0.02757,
                    -2.04494
                ]
            ],
            [
                [
                    -1.7835,
                    -0.00017,
                    -0.27434
                ],
                [
                    0.00147,
                    -1.51446,
                    -0.02437
                ],
                [
                    -0.412,
                    -0.02744,
                    -2.0449
                ]
            ]
        ]
    },
    "band_gap": 4.8357,
    "is_direct": false,
    "formula": "CaSiO3"
}