{
    "mp_id": "mp-4533",
    "nelements": 3,
    "nsites": 12,
    "elements": [
        "Na",
        "O",
        "Si"
    ],
    "structure": {
        "@module": "pymatgen.core.structure",
        "@class": "Structure",
        "charge": null,
        "lattice": {
            "matrix": [
                [
                    5.23326559,
                    -3.0194851,
                    0.0
                ],
                [
                    5.23326559,
                    3.0194851,
                    0.0
                ],
                [
                    0.0,
                    0.0,
                    4.78312709
                ]
            ],
            "a": 6.041883729814739,
            "b": 6.041883729814739,
            "c": 4.78312709,
            "alpha": 90.0,
            "beta": 90.0,
            "gamma": 59.96809900644423,
            "volume": 151.16372414330056
        },
        "sites": [
            {
                "species": [
                    {
                        "element": "Na",
                        "occu": 1
                    }
                ],
                "abc": [
                    0.82747562,
                    0.50351646,
                    0.99855346
                ],
                "xyz": [
                    6.965435052826527,
                    -0.9781898566285154,
                    4.776208105339231
                ],
                "label": "Na",
                "properties": {}
            },
            {
                "species": [
                    {
                        "element": "Na",
                        "occu": 1
                    }
                ],
                "abc": [
                    0.49648354,
                    0.17252438,
                    0.99855346
                ],
                "xyz": [
                    3.501096127173473,
                    -0.9781898566285159,
                    4.776208105339231
                ],
                "label": "Na",
                "properties": {}
            },
            {
                "species": [
                    {
                        "element": "Na",
                        "occu": 1
                    }
                ],
                "abc": [
                    0.17252438,
                    0.49648354,
                    0.49855346
                ],
                "xyz": [
                    3.501096127173473,
                    0.9781898566285159,
                    2.3846445603392312
                ],
                "label": "Na",
                "properties": {}
            },
            {
                "species": [
                    {
                        "element": "Na",
                        "occu": 1
                    }
                ],
                "abc": [
                    0.50351646,
                    0.82747562,
                    0.49855346
                ],
                "xyz": [
                    6.965435052826527,
                    0.9781898566285154,
                    2.3846445603392312
                ],
                "label": "Na",
                "properties": {}
            },
            {
                "species": [
                    {
                        "element": "Si",
                        "occu": 1
                    }
                ],
                "abc": [
                    0.15970759,
                    0.84029241,
                    0.96089993
                ],
                "xyz": [
                    5.23326559,
                    2.055015723276182,
                    4.596106485962103
                ],
                "label": "Si",
                "properties": {}
            },
            {
                "species": [
                    {
                        "element": "Si",
                        "occu": 1
                    }
                ],
                "abc": [
                    0.84029241,
                    0.15970759,
                    0.46089993
                ],
                "xyz": [
                    5.23326559,
                    -2.055015723276182,
                    2.204542940962104
                ],
                "label": "Si",
                "properties": {}
            },
            {
                "species": [
                    {
                        "element": "O",
                        "occu": 1
                    }
                ],
                "abc": [
                    0.91055718,
                    0.08944282,
                    0.11816345
                ],
                "xyz": [
                    5.23326559,
                    -2.4793425754160356,
                    0.5651907987428605
                ],
                "label": "O",
                "properties": {}
            },
            {
                "species": [
                    {
                        "element": "O",
                        "occu": 1
                    }
                ],
                "abc": [
                    0.08944282,
                    0.91055718,
                    0.61816345
                ],
                "xyz": [
                    5.23326559,
                    2.4793425754160356,
                    2.95675434374286
                ],
                "label": "O",
                "properties": {}
            },
            {
                "species": [
                    {
                        "element": "O",
                        "occu": 1
                    }
                ],
                "abc": [
                    0.15922767,
                    0.57779254,
                    0.01861385
                ],
                "xyz": [
                    3.857022504127574,
                    1.2638503883484369,
                    0.0890324101841965
                ],
                "label": "O",
                "properties": {}
            },
            {
                "species": [
                    {
                        "element": "O",
                        "occu": 1
                    }
                ],
                "abc": [
                    0.84077233,
                    0.42220746,
                    0.51861385
                ],
                "xyz": [
                    6.609508675872426,
                    -1.2638503883484367,
                    2.4805959551841967
                ],
                "label": "O",
                "properties": {}
            },
            {
                "species": [
                    {
                        "element": "O",
                        "occu": 1
                    }
                ],
                "abc": [
                    0.42220746,
                    0.84077233,
                    0.01861385
                ],
                "xyz": [
                    6.609508675872426,
                    1.2638503883484367,
                    0.0890324101841965
                ],
                "label": "O",
                "properties": {}
            },
            {
                "species": [
                    {
                        "element": "O",
                        "occu": 1
                    }
                ],
                "abc": [
                    0.57779254,
                    0.15922767,
                    0.51861385
                ],
                "xyz": [
                    3.857022504127574,
                    -1.2638503883484369,
                    2.4805959551841967
                ],
                "label": "O",
                "properties": {}
            }
        ]
    },
    "spacegroup": {
        "source": "spglib",
        "symbol": "Cmc2_1",
        "number": 36,
        "point_group": "mm2",
        "crystal_system": "orthorhombic",
        "hall": "C 2c -2"
    },
    "dielectric": {
        "epsilon_ionic": [
            [
                2.14321017,
                -0.0,
                -1.66e-06
            ],
            [
                -0.0,
                2.43506984,
                -1.8e-07
            ],
            [
                -1.66e-06,
                -1.8e-07,
                4.1920738
            ]
        ],
        "epsilon_ionic_avg": 2.9234512699999997,
        "epsilon_ionic_eig": [
            2.143210169998656,
            4.192073800001363,
            2.435069839999981
        ],
        "epsilon_electronic": [
            [
                2.36558393,
                0.0,
                0.0
            ],
            [
                0.0,
                2.3954378,
                0.0
            ],
            [
                0.0,
                0.0,
                2.42728117
            ]
        ],
        "epsilon_electronic_avg": 2.396100966666667,
        "epsilon_electronic_eig": [
            2.36558393,
            2.3954378,
            2.42728117
        ]
    },
    "phonon": {
        "lowest_freq": -0.19782649243249467,
        "frequency": [
            -0.19782649243249467,
            -0.09211938040864621,
            -0.0626725522192372,
            4.737371535820642,
            5.341122032528588,
            5.6436351435650955,
            5.811186702227774,
            5.9120206023496795,
            5.985929480028516,
            6.123800085736678,
            6.127256922085257,
            6.596234422239728,
            6.930145019282632,
            7.19380596919241,
            7.203528376848332,
            7.204237060560247,
            7.449322848687012,
            7.931173802281927,
            7.997804222255861,
            8.899249645505744,
            8.935211275863358,
            11.18521056500106,
            11.49526854578551,
            11.928135746409414,
            12.027741684667658,
            14.401251133380736,
            15.076926162543353,
            15.50062641383127,
            17.000065490680893,
            20.860731345459715,
            25.459947061344607,
            26.1504295049494,
            27.79102253543331,
            28.392712449346764,
            30.008277200452046,
            30.03779416122703
        ]
    },
    "born_effective_charge": {
        "avg_abs_trace": 1.5883705555555554,
        "tensors": [
            [
                [
                    1.03097,
                    -0.00878,
                    -0.00668
                ],
                [
                    0.07053,
                    0.997,
                    -0.01497
                ],
                [
                    -0.01584,
                    -0.01557,
                    1.00822
                ]
            ],
            [
                [
                    1.03097,
                    0.00878,
                    0.00668
                ],
                [
                    -0.07053,
                    0.997,
                    -0.01497
                ],
                [
                    0.01584,
                    -0.01557,
                    1.00822
                ]
            ],
            [
                [
                    1.03097,
                    -0.00878,
                    0.00668
                ],
                [
                    0.07053,
                    0.997,
                    0.01497
                ],
                [
                    0.01584,
                    0.01557,
                    1.00822
                ]
            ],
            [
                [
                    1.03097,
                    0.00878,
                    -0.00668
                ],
                [
                    -0.07053,
                    0.997,
                    0.01497
                ],
                [
                    -0.01584,
                    0.01557,
                    1.00822
                ]
            ],
            [
                [
                    2.49961,
                    0.0,
                    -0.0
                ],
                [
                    0.0,
                    2.74143,
                    -0.26763
                ],
                [
                    0.0,
                    0.17414,
                    2.98192
                ]
            ],
            [
                [
                    2.49961,
                    -0.0,
                    -0.0
                ],
                [
                    0.0,
                    2.74143,
                    0.26763
                ],
                [
                    0.0,
                    -0.17414,
                    2.98192
                ]
            ],
            [
                [
                    -0.98763,
                    0.0,
                    0.0
                ],
                [
                    0.0,
                    -1.79312,
                    -0.62175
                ],
                [
                    0.0,
                    -0.73961,
                    -2.3102
                ]
            ],
            [
                [
                    -0.98763,
                    -0.0,
                    0.0
                ],
                [
                    0.0,
                    -1.79312,
                    0.62175
                ],
                [
                    0.0,
                    0.73961,
                    -2.3102
                ]
            ],
            [
                [
                    -1.78696,
                    -0.24719,
                    0.06838
                ],
                [
                    -0.36237,
                    -1.47115,
                    0.08849
                ],
                [
                    0.09096,
                    0.021,
                    -1.34408
                ]
            ],
            [
                [
                    -1.78696,
                    -0.24719,
                    -0.06838
                ],
                [
                    -0.36236,
                    -1.47115,
                    -0.08849
                ],
                [
                    -0.09096,
                    -0.021,
                    -1.34408
                ]
            ],
            [
                [
                    -1.78696,
                    0.24719,
                    -0.06838
                ],
                [
                    0.36237,
                    -1.47115,
                    0.08849
                ],
                [
                    -0.09096,
                    0.021,
                    -1.34408
                ]
            ],
            [
                [
                    -1.78696,
                    0.24719,
                    0.06838
                ],
                [
                    0.36236,
                    -1.47115,
                    -0.08849
                ],
                [
                    0.09096,
                    -0.021,
                    -1.34408
                ]
            ]
        ]
    },
    "band_gap": 3.9943,
    "is_direct": false,
    "formula": "Na2SiO3"
}