{
    "mp_id": "mp-4056",
    "nelements": 3,
    "nsites": 28,
    "elements": [
        "Ca",
        "O",
        "Sc"
    ],
    "structure": {
        "@module": "pymatgen.core.structure",
        "@class": "Structure",
        "charge": null,
        "lattice": {
            "matrix": [
                [
                    9.34942278,
                    0.0,
                    0.0
                ],
                [
                    0.0,
                    3.11596922,
                    0.0
                ],
                [
                    0.0,
                    0.0,
                    11.02426226
                ]
            ],
            "a": 9.34942278,
            "b": 3.11596922,
            "c": 11.02426226,
            "alpha": 90.0,
            "beta": 90.0,
            "gamma": 90.0,
            "volume": 321.1644702993077
        },
        "sites": [
            {
                "species": [
                    {
                        "element": "Ca",
                        "occu": 1
                    }
                ],
                "abc": [
                    0.25535069,
                    0.75,
                    0.84665739
                ],
                "xyz": [
                    2.387381557974718,
                    2.336976915,
                    9.333773111727101
                ],
                "label": "Ca",
                "properties": {}
            },
            {
                "species": [
                    {
                        "element": "Ca",
                        "occu": 1
                    }
                ],
                "abc": [
                    0.74464931,
                    0.25,
                    0.15334261
                ],
                "xyz": [
                    6.962041222025282,
                    0.778992305,
                    1.6904891482728985
                ],
                "label": "Ca",
                "properties": {}
            },
            {
                "species": [
                    {
                        "element": "Ca",
                        "occu": 1
                    }
                ],
                "abc": [
                    0.75535069,
                    0.75,
                    0.65334261
                ],
                "xyz": [
                    7.062092947974717,
                    2.336976915,
                    7.202620278272899
                ],
                "label": "Ca",
                "properties": {}
            },
            {
                "species": [
                    {
                        "element": "Ca",
                        "occu": 1
                    }
                ],
                "abc": [
                    0.24464931,
                    0.25,
                    0.34665739
                ],
                "xyz": [
                    2.2873298320252817,
                    0.778992305,
                    3.8216419817271015
                ],
                "label": "Ca",
                "properties": {}
            },
            {
                "species": [
                    {
                        "element": "Sc",
                        "occu": 1
                    }
                ],
                "abc": [
                    0.57982514,
                    0.25,
                    0.89322548
                ],
                "xyz": [
                    5.421030372332688,
                    0.778992305,
                    9.847151948834385
                ],
                "label": "Sc",
                "properties": {}
            },
            {
                "species": [
                    {
                        "element": "Sc",
                        "occu": 1
                    }
                ],
                "abc": [
                    0.42017486,
                    0.75,
                    0.10677452
                ],
                "xyz": [
                    3.9283924076673102,
                    2.336976915,
                    1.1771103111656152
                ],
                "label": "Sc",
                "properties": {}
            },
            {
                "species": [
                    {
                        "element": "Sc",
                        "occu": 1
                    }
                ],
                "abc": [
                    0.07982514,
                    0.25,
                    0.60677452
                ],
                "xyz": [
                    0.7463189823326892,
                    0.778992305,
                    6.689241441165615
                ],
                "label": "Sc",
                "properties": {}
            },
            {
                "species": [
                    {
                        "element": "Sc",
                        "occu": 1
                    }
                ],
                "abc": [
                    0.92017486,
                    0.75,
                    0.39322548
                ],
                "xyz": [
                    8.60310379766731,
                    2.336976915,
                    4.335020818834385
                ],
                "label": "Sc",
                "properties": {}
            },
            {
                "species": [
                    {
                        "element": "Sc",
                        "occu": 1
                    }
                ],
                "abc": [
                    0.92865603,
                    0.75,
                    0.88824928
                ],
                "xyz": [
                    8.682397841666363,
                    2.336976915,
                    9.792293014976174
                ],
                "label": "Sc",
                "properties": {}
            },
            {
                "species": [
                    {
                        "element": "Sc",
                        "occu": 1
                    }
                ],
                "abc": [
                    0.07134397,
                    0.25,
                    0.11175072
                ],
                "xyz": [
                    0.6670249383336366,
                    0.778992305,
                    1.2319692450238273
                ],
                "label": "Sc",
                "properties": {}
            },
            {
                "species": [
                    {
                        "element": "Sc",
                        "occu": 1
                    }
                ],
                "abc": [
                    0.42865603,
                    0.75,
                    0.61175072
                ],
                "xyz": [
                    4.0076864516663635,
                    2.336976915,
                    6.7441003750238275
                ],
                "label": "Sc",
                "properties": {}
            },
            {
                "species": [
                    {
                        "element": "Sc",
                        "occu": 1
                    }
                ],
                "abc": [
                    0.57134397,
                    0.25,
                    0.38824928
                ],
                "xyz": [
                    5.341736328333637,
                    0.778992305,
                    4.280161884976173
                ],
                "label": "Sc",
                "properties": {}
            },
            {
                "species": [
                    {
                        "element": "O",
                        "occu": 1
                    }
                ],
                "abc": [
                    0.57938934,
                    0.25,
                    0.57642132
                ],
                "xyz": [
                    5.416955893885165,
                    0.778992305,
                    6.354619803935384
                ],
                "label": "O",
                "properties": {}
            },
            {
                "species": [
                    {
                        "element": "O",
                        "occu": 1
                    }
                ],
                "abc": [
                    0.42061066,
                    0.75,
                    0.42357868
                ],
                "xyz": [
                    3.9324668861148346,
                    2.336976915,
                    4.669642456064617
                ],
                "label": "O",
                "properties": {}
            },
            {
                "species": [
                    {
                        "element": "O",
                        "occu": 1
                    }
                ],
                "abc": [
                    0.07938934,
                    0.25,
                    0.92357868
                ],
                "xyz": [
                    0.7422445038851652,
                    0.778992305,
                    10.181773586064617
                ],
                "label": "O",
                "properties": {}
            },
            {
                "species": [
                    {
                        "element": "O",
                        "occu": 1
                    }
                ],
                "abc": [
                    0.92061066,
                    0.75,
                    0.07642132
                ],
                "xyz": [
                    8.607178276114835,
                    2.336976915,
                    0.8424886739353833
                ],
                "label": "O",
                "properties": {}
            },
            {
                "species": [
                    {
                        "element": "O",
                        "occu": 1
                    }
                ],
                "abc": [
                    0.47899151,
                    0.25,
                    0.21610128
                ],
                "xyz": [
                    4.478294135020597,
                    0.778992305,
                    2.382357185441693
                ],
                "label": "O",
                "properties": {}
            },
            {
                "species": [
                    {
                        "element": "O",
                        "occu": 1
                    }
                ],
                "abc": [
                    0.52100849,
                    0.75,
                    0.78389872
                ],
                "xyz": [
                    4.871128644979402,
                    2.336976915,
                    8.641905074558307
                ],
                "label": "O",
                "properties": {}
            },
            {
                "species": [
                    {
                        "element": "O",
                        "occu": 1
                    }
                ],
                "abc": [
                    0.97899151,
                    0.25,
                    0.28389872
                ],
                "xyz": [
                    9.153005525020596,
                    0.778992305,
                    3.1297739445583073
                ],
                "label": "O",
                "properties": {}
            },
            {
                "species": [
                    {
                        "element": "O",
                        "occu": 1
                    }
                ],
                "abc": [
                    0.02100849,
                    0.75,
                    0.71610128
                ],
                "xyz": [
                    0.1964172549794022,
                    2.336976915,
                    7.894488315441692
                ],
                "label": "O",
                "properties": {}
            },
            {
                "species": [
                    {
                        "element": "O",
                        "occu": 1
                    }
                ],
                "abc": [
                    0.87548989,
                    0.25,
                    0.52353412
                ],
                "xyz": [
                    8.185325121225693,
                    0.778992305,
                    5.771577440938311
                ],
                "label": "O",
                "properties": {}
            },
            {
                "species": [
                    {
                        "element": "O",
                        "occu": 1
                    }
                ],
                "abc": [
                    0.12451011,
                    0.75,
                    0.47646588
                ],
                "xyz": [
                    1.1640976587743057,
                    2.336976915,
                    5.252684819061689
                ],
                "label": "O",
                "properties": {}
            },
            {
                "species": [
                    {
                        "element": "O",
                        "occu": 1
                    }
                ],
                "abc": [
                    0.37548989,
                    0.25,
                    0.97646588
                ],
                "xyz": [
                    3.510613731225694,
                    0.778992305,
                    10.76481594906169
                ],
                "label": "O",
                "properties": {}
            },
            {
                "species": [
                    {
                        "element": "O",
                        "occu": 1
                    }
                ],
                "abc": [
                    0.62451011,
                    0.75,
                    0.02353412
                ],
                "xyz": [
                    5.838809048774306,
                    2.336976915,
                    0.2594463109383112
                ],
                "label": "O",
                "properties": {}
            },
            {
                "species": [
                    {
                        "element": "O",
                        "occu": 1
                    }
                ],
                "abc": [
                    0.70814205,
                    0.75,
                    0.32738265
                ],
                "xyz": [
                    6.620719413745898,
                    2.336976915,
                    3.6091521929737893
                ],
                "label": "O",
                "properties": {}
            },
            {
                "species": [
                    {
                        "element": "O",
                        "occu": 1
                    }
                ],
                "abc": [
                    0.29185795,
                    0.25,
                    0.67261735
                ],
                "xyz": [
                    2.7287033662541007,
                    0.778992305,
                    7.415110067026212
                ],
                "label": "O",
                "properties": {}
            },
            {
                "species": [
                    {
                        "element": "O",
                        "occu": 1
                    }
                ],
                "abc": [
                    0.20814205,
                    0.75,
                    0.17261735
                ],
                "xyz": [
                    1.9460080237458988,
                    2.336976915,
                    1.9029789370262111
                ],
                "label": "O",
                "properties": {}
            },
            {
                "species": [
                    {
                        "element": "O",
                        "occu": 1
                    }
                ],
                "abc": [
                    0.79185795,
                    0.25,
                    0.82738265
                ],
                "xyz": [
                    7.403414756254101,
                    0.778992305,
                    9.12128332297379
                ],
                "label": "O",
                "properties": {}
            }
        ]
    },
    "spacegroup": {
        "source": "spglib",
        "symbol": "Pnma",
        "number": 62,
        "point_group": "mmm",
        "crystal_system": "orthorhombic",
        "hall": "-P 2ac 2n"
    },
    "dielectric": {
        "epsilon_ionic": [
            [
                17.02825162,
                -0.0,
                -0.0
            ],
            [
                -0.0,
                16.60536851,
                1e-08
            ],
            [
                -0.0,
                1e-08,
                14.53209685
            ]
        ],
        "epsilon_ionic_avg": 16.055238993333333,
        "epsilon_ionic_eig": [
            14.53209685,
            16.60536851,
            17.02825162
        ],
        "epsilon_electronic": [
            [
                4.4486456,
                0.0,
                0.0
            ],
            [
                0.0,
                4.82291226,
                0.0
            ],
            [
                0.0,
                0.0,
                4.69215001
            ]
        ],
        "epsilon_electronic_avg": 4.65456929,
        "epsilon_electronic_eig": [
            4.4486456,
            4.82291226,
            4.69215001
        ]
    },
    "phonon": {
        "lowest_freq": -0.04747149343952881,
        "frequency": [
            -0.04747149343952881,
            -0.0296480091037825,
            -0.023283296303017034,
            3.1132404771906934,
            3.342117364342051,
            3.3901996641356167,
            3.700414194427376,
            3.7966700571911494,
            3.975736837833282,
            4.199827775882953,
            4.346826565684874,
            4.583193478658742,
            4.626275233970945,
            4.629921959532814,
            4.909009088523475,
            4.975066607444019,
            5.1477618981999305,
            5.207432011080395,
            5.395883250046914,
            5.573252846081444,
            5.671595266819553,
            5.767258131299677,
            5.898275332918345,
            6.201768794435932,
            6.362848634972429,
            6.581775136380551,
            7.134581168566675,
            7.292335947740749,
            7.533946459471877,
            7.884156231591443,
            8.031080449077367,
            8.34497693243866,
            8.74399547969173,
            8.768061975163103,
            8.85934689098378,
            9.213221485270228,
            9.302636466170283,
            9.369168330419553,
            9.475486062271727,
            9.47612010757395,
            9.714639400852228,
            9.75899272557602,
            10.050650293503267,
            10.208466626676275,
            10.817385920278825,
            10.82388917818023,
            10.87893217145426,
            10.962206826398928,
            10.98538412547722,
            11.026656006569267,
            11.049111186307023,
            11.050188870195015,
            11.228827017739436,
            11.586804818269941,
            11.6547878694521,
            11.758588956673773,
            11.951408190402084,
            12.014851710430825,
            12.308844812954847,
            12.719937292937718,
            12.834576010604733,
            13.1790556765479,
            13.26032907855045,
            13.566095551598869,
            13.587958051552176,
            13.607183457111585,
            13.620627980983043,
            13.626378876891648,
            13.978321594070913,
            14.276930376502742,
            14.393894060245866,
            14.759441327022229,
            15.134341539305227,
            16.266182911776358,
            16.82766172774273,
            16.88227550744648,
            17.202942419446824,
            18.344914668542124,
            18.6289363428801,
            18.996259353013137,
            19.81484316109886,
            20.253399848523735,
            20.328227494424862,
            20.971437812457182
        ]
    },
    "born_effective_charge": {
        "avg_abs_trace": 2.944873809523809,
        "tensors": [
            [
                [
                    2.6096,
                    0.0,
                    0.04409
                ],
                [
                    -2e-05,
                    2.31309,
                    -0.00014
                ],
                [
                    0.07316,
                    0.0,
                    2.46566
                ]
            ],
            [
                [
                    2.60954,
                    -0.0,
                    0.04399
                ],
                [
                    2e-05,
                    2.31309,
                    0.00014
                ],
                [
                    0.07311,
                    0.0,
                    2.46575
                ]
            ],
            [
                [
                    2.6096,
                    0.0,
                    -0.04409
                ],
                [
                    -2e-05,
                    2.31309,
                    0.00014
                ],
                [
                    -0.07311,
                    0.0,
                    2.46575
                ]
            ],
            [
                [
                    2.60954,
                    -0.0,
                    -0.04399
                ],
                [
                    2e-05,
                    2.31309,
                    -0.00014
                ],
                [
                    -0.07316,
                    -0.0,
                    2.46566
                ]
            ],
            [
                [
                    3.58044,
                    -0.0,
                    -0.3595
                ],
                [
                    0.00022,
                    4.41895,
                    0.00021
                ],
                [
                    -0.1793,
                    0.0,
                    3.67827
                ]
            ],
            [
                [
                    3.58047,
                    -0.0,
                    -0.35946
                ],
                [
                    -0.00022,
                    4.41895,
                    -0.00021
                ],
                [
                    -0.17933,
                    -0.0,
                    3.67811
                ]
            ],
            [
                [
                    3.58044,
                    -0.0,
                    0.3595
                ],
                [
                    0.00022,
                    4.41895,
                    -0.00021
                ],
                [
                    0.17933,
                    0.0,
                    3.67811
                ]
            ],
            [
                [
                    3.58047,
                    -0.0,
                    0.35946
                ],
                [
                    -0.00022,
                    4.41895,
                    0.00021
                ],
                [
                    0.1793,
                    -0.0,
                    3.67827
                ]
            ],
            [
                [
                    3.45318,
                    0.0,
                    0.18122
                ],
                [
                    0.0,
                    4.1479,
                    -4e-05
                ],
                [
                    0.06474,
                    -0.0,
                    4.25412
                ]
            ],
            [
                [
                    3.45317,
                    0.0,
                    0.18121
                ],
                [
                    -0.0,
                    4.1479,
                    4e-05
                ],
                [
                    0.06478,
                    0.0,
                    4.25415
                ]
            ],
            [
                [
                    3.45318,
                    0.0,
                    -0.18122
                ],
                [
                    0.0,
                    4.1479,
                    4e-05
                ],
                [
                    -0.06478,
                    -0.0,
                    4.25415
                ]
            ],
            [
                [
                    3.45317,
                    0.0,
                    -0.18121
                ],
                [
                    -0.0,
                    4.1479,
                    -4e-05
                ],
                [
                    -0.06474,
                    0.0,
                    4.25412
                ]
            ],
            [
                [
                    -2.31756,
                    -0.0,
                    -0.00682
                ],
                [
                    0.00039,
                    -2.72223,
                    -0.00014
                ],
                [
                    0.11815,
                    0.0,
                    -2.55032
                ]
            ],
            [
                [
                    -2.31756,
                    -0.0,
                    -0.00688
                ],
                [
                    -0.00039,
                    -2.72223,
                    0.00014
                ],
                [
                    0.11831,
                    0.0,
                    -2.55029
                ]
            ],
            [
                [
                    -2.31756,
                    -0.0,
                    0.00682
                ],
                [
                    0.00039,
                    -2.72223,
                    0.00014
                ],
                [
                    -0.11831,
                    0.0,
                    -2.55029
                ]
            ],
            [
                [
                    -2.31756,
                    -0.0,
                    0.00688
                ],
                [
                    -0.00039,
                    -2.72223,
                    -0.00014
                ],
                [
                    -0.11815,
                    0.0,
                    -2.55032
                ]
            ],
            [
                [
                    -1.93688,
                    -0.0,
                    -0.47748
                ],
                [
                    0.0004,
                    -2.73928,
                    0.00075
                ],
                [
                    -0.6607,
                    0.0,
                    -3.26194
                ]
            ],
            [
                [
                    -1.93687,
                    -0.0,
                    -0.47748
                ],
                [
                    -0.0004,
                    -2.73928,
                    -0.00075
                ],
                [
                    -0.66073,
                    0.0,
                    -3.26207
                ]
            ],
            [
                [
                    -1.93688,
                    -0.0,
                    0.47748
                ],
                [
                    0.0004,
                    -2.73928,
                    -0.00075
                ],
                [
                    0.66073,
                    0.0,
                    -3.26207
                ]
            ],
            [
                [
                    -1.93687,
                    -0.0,
                    0.47748
                ],
                [
                    -0.0004,
                    -2.73928,
                    0.00075
                ],
                [
                    0.6607,
                    0.0,
                    -3.26194
                ]
            ],
            [
                [
                    -2.33553,
                    0.0,
                    0.00135
                ],
                [
                    5e-05,
                    -2.68053,
                    5e-05
                ],
                [
                    -0.07763,
                    0.0,
                    -2.54797
                ]
            ],
            [
                [
                    -2.33548,
                    -0.0,
                    0.00127
                ],
                [
                    -5e-05,
                    -2.68053,
                    -5e-05
                ],
                [
                    -0.07765,
                    0.0,
                    -2.54786
                ]
            ],
            [
                [
                    -2.33553,
                    0.0,
                    -0.00135
                ],
                [
                    5e-05,
                    -2.68053,
                    -5e-05
                ],
                [
                    0.07765,
                    0.0,
                    -2.54786
                ]
            ],
            [
                [
                    -2.33548,
                    -0.0,
                    -0.00127
                ],
                [
                    -5e-05,
                    -2.68053,
                    5e-05
                ],
                [
                    0.07763,
                    0.0,
                    -2.54797
                ]
            ],
            [
                [
                    -3.05322,
                    -0.0,
                    0.03166
                ],
                [
                    0.00051,
                    -2.73791,
                    -0.0002
                ],
                [
                    0.09532,
                    0.0,
                    -2.03783
                ]
            ],
            [
                [
                    -3.05329,
                    -0.0,
                    0.03157
                ],
                [
                    -0.00051,
                    -2.73791,
                    0.0002
                ],
                [
                    0.09534,
                    0.0,
                    -2.03779
                ]
            ],
            [
                [
                    -3.05322,
                    -0.0,
                    -0.03166
                ],
                [
                    0.00051,
                    -2.73791,
                    0.0002
                ],
                [
                    -0.09534,
                    0.0,
                    -2.03779
                ]
            ],
            [
                [
                    -3.05329,
                    -0.0,
                    -0.03157
                ],
                [
                    -0.00051,
                    -2.73791,
                    -0.0002
                ],
                [
                    -0.09532,
                    0.0,
                    -2.03783
                ]
            ]
        ]
    },
    "band_gap": 3.3615999999999997,
    "is_direct": true,
    "formula": "CaSc2O4"
}