{
    "mp_id": "mp-4820",
    "nelements": 3,
    "nsites": 12,
    "elements": [
        "O",
        "Si",
        "Zr"
    ],
    "structure": {
        "@module": "pymatgen.core.structure",
        "@class": "Structure",
        "charge": null,
        "lattice": {
            "matrix": [
                [
                    -3.33178877,
                    3.33178877,
                    3.00561464
                ],
                [
                    3.33178877,
                    -3.33178877,
                    3.00561464
                ],
                [
                    3.33178877,
                    3.33178877,
                    -3.00561464
                ]
            ],
            "a": 5.588859649336218,
            "b": 5.588859649336218,
            "c": 5.588859649336218,
            "alpha": 106.81094011692859,
            "beta": 106.81094011692859,
            "gamma": 114.93380055619855,
            "volume": 133.45910524612316
        },
        "sites": [
            {
                "species": [
                    {
                        "element": "Zr",
                        "occu": 1
                    }
                ],
                "abc": [
                    0.5,
                    0.5,
                    0.0
                ],
                "xyz": [
                    0.0,
                    0.0,
                    3.00561464
                ],
                "label": "Zr",
                "properties": {}
            },
            {
                "species": [
                    {
                        "element": "Zr",
                        "occu": 1
                    }
                ],
                "abc": [
                    0.25,
                    0.75,
                    0.5
                ],
                "xyz": [
                    3.33178877,
                    -2.220446049250313e-16,
                    1.50280732
                ],
                "label": "Zr",
                "properties": {}
            },
            {
                "species": [
                    {
                        "element": "Si",
                        "occu": 1
                    }
                ],
                "abc": [
                    0.0,
                    0.0,
                    0.0
                ],
                "xyz": [
                    0.0,
                    0.0,
                    0.0
                ],
                "label": "Si",
                "properties": {}
            },
            {
                "species": [
                    {
                        "element": "Si",
                        "occu": 1
                    }
                ],
                "abc": [
                    0.75,
                    0.25,
                    0.5
                ],
                "xyz": [
                    -2.220446049250313e-16,
                    3.33178877,
                    1.50280732
                ],
                "label": "Si",
                "properties": {}
            },
            {
                "species": [
                    {
                        "element": "O",
                        "occu": 1
                    }
                ],
                "abc": [
                    0.6361545,
                    0.8197743,
                    0.8163802
                ],
                "xyz": [
                    3.33178877,
                    2.108223994820708,
                    1.9222366351515037
                ],
                "label": "O",
                "properties": {}
            },
            {
                "species": [
                    {
                        "element": "O",
                        "occu": 1
                    }
                ],
                "abc": [
                    0.5697743,
                    0.25339411,
                    0.6836198
                ],
                "xyz": [
                    1.22356480849718,
                    3.331788736682112,
                    0.4194293452076501
                ],
                "label": "O",
                "properties": {}
            },
            {
                "species": [
                    {
                        "element": "O",
                        "occu": 1
                    }
                ],
                "abc": [
                    0.5697743,
                    0.8861545,
                    0.3163802
                ],
                "xyz": [
                    2.108223994820708,
                    -2.220446049250313e-16,
                    3.4250439551515037
                ],
                "label": "O",
                "properties": {}
            },
            {
                "species": [
                    {
                        "element": "O",
                        "occu": 1
                    }
                ],
                "abc": [
                    0.00339411,
                    0.8197743,
                    0.1836198
                ],
                "xyz": [
                    3.331788736682112,
                    -2.10822396150282,
                    1.9222366652076501
                ],
                "label": "O",
                "properties": {}
            },
            {
                "species": [
                    {
                        "element": "O",
                        "occu": 1
                    }
                ],
                "abc": [
                    0.1802257,
                    0.99660589,
                    0.8163802
                ],
                "xyz": [
                    5.44001273150282,
                    3.3317887560002646e-08,
                    1.0833779747923495
                ],
                "label": "O",
                "properties": {}
            },
            {
                "species": [
                    {
                        "element": "O",
                        "occu": 1
                    }
                ],
                "abc": [
                    0.1138455,
                    0.4302257,
                    0.6836198
                ],
                "xyz": [
                    3.33178877,
                    1.223564775179292,
                    -0.41942931515150406
                ],
                "label": "O",
                "properties": {}
            },
            {
                "species": [
                    {
                        "element": "O",
                        "occu": 1
                    }
                ],
                "abc": [
                    0.74660589,
                    0.4302257,
                    0.3163802
                ],
                "xyz": [
                    3.3317888004091856e-08,
                    2.10822396150282,
                    2.58618529479235
                ],
                "label": "O",
                "properties": {}
            },
            {
                "species": [
                    {
                        "element": "O",
                        "occu": 1
                    }
                ],
                "abc": [
                    0.1802257,
                    0.3638455,
                    0.1836198
                ],
                "xyz": [
                    1.223564775179292,
                    0.0,
                    1.083378004848496
                ],
                "label": "O",
                "properties": {}
            }
        ]
    },
    "spacegroup": {
        "source": "spglib",
        "symbol": "I4_1/amd",
        "number": 141,
        "point_group": "4/mmm",
        "crystal_system": "tetragonal",
        "hall": "I 4bw 2bw -1bw"
    },
    "dielectric": {
        "epsilon_ionic": [
            [
                7.47772728,
                0.0,
                -0.0
            ],
            [
                0.0,
                7.47764716,
                -0.0
            ],
            [
                -0.0,
                -0.0,
                7.47520405
            ]
        ],
        "epsilon_ionic_avg": 7.476859496666667,
        "epsilon_ionic_eig": [
            7.47772728,
            7.47764716,
            7.47520405
        ],
        "epsilon_electronic": [
            [
                3.88957041,
                0.0,
                0.0
            ],
            [
                0.0,
                3.88957041,
                0.0
            ],
            [
                0.0,
                0.0,
                4.14883435
            ]
        ],
        "epsilon_electronic_avg": 3.9759917233333333,
        "epsilon_electronic_eig": [
            3.88957041,
            3.88957041,
            4.14883435
        ]
    },
    "phonon": {
        "lowest_freq": -0.016271910652519678,
        "frequency": [
            -0.016271910652519678,
            -0.016271910652519678,
            -0.014886495560623986,
            4.04749346525612,
            5.697533675160446,
            5.697533675160446,
            6.326785382916494,
            6.651191156103724,
            6.651191156103724,
            7.183268105877652,
            7.514848201929289,
            8.29009282671661,
            8.29009282671661,
            9.925963049200028,
            10.642689766627198,
            10.642689766627198,
            11.163159056253116,
            11.163159056253116,
            11.464969086972312,
            11.599570929092758,
            12.427456523888402,
            12.427456523888402,
            12.891952593325247,
            15.659393781569493,
            15.659393781569493,
            16.420503109826782,
            17.432575962940433,
            18.395497677188455,
            25.704784970404784,
            25.704784970404784,
            27.273158136654214,
            27.273158136654214,
            27.419522420486633,
            28.20257291278037,
            28.846745880989065,
            29.79618727425614
        ]
    },
    "born_effective_charge": {
        "avg_abs_trace": 2.856926111111111,
        "tensors": [
            [
                [
                    5.24432,
                    -0.0,
                    4e-05
                ],
                [
                    0.0,
                    5.24428,
                    1e-05
                ],
                [
                    -0.0,
                    -0.0,
                    4.6797
                ]
            ],
            [
                [
                    5.24432,
                    -0.0,
                    -4e-05
                ],
                [
                    0.0,
                    5.24428,
                    -1e-05
                ],
                [
                    -0.0,
                    -0.0,
                    4.6797
                ]
            ],
            [
                [
                    3.12922,
                    -0.0,
                    1e-05
                ],
                [
                    0.0,
                    3.12923,
                    -1e-05
                ],
                [
                    -0.0,
                    -0.0,
                    4.28558
                ]
            ],
            [
                [
                    3.12922,
                    -0.0,
                    -1e-05
                ],
                [
                    0.0,
                    3.12923,
                    1e-05
                ],
                [
                    -0.0,
                    -0.0,
                    4.28558
                ]
            ],
            [
                [
                    -1.14322,
                    -8e-05,
                    2e-05
                ],
                [
                    0.0,
                    -3.04357,
                    -0.33644
                ],
                [
                    -0.0,
                    -0.17585,
                    -2.24134
                ]
            ],
            [
                [
                    -3.04357,
                    -0.0,
                    0.33648
                ],
                [
                    1e-05,
                    -1.14321,
                    2e-05
                ],
                [
                    0.17585,
                    -0.0,
                    -2.24134
                ]
            ],
            [
                [
                    -3.04354,
                    -0.0,
                    -0.33652
                ],
                [
                    -1e-05,
                    -1.14321,
                    2e-05
                ],
                [
                    -0.17585,
                    -0.0,
                    -2.24134
                ]
            ],
            [
                [
                    -1.14322,
                    8e-05,
                    2e-05
                ],
                [
                    -0.0,
                    -3.04352,
                    0.33656
                ],
                [
                    -0.0,
                    0.17585,
                    -2.24134
                ]
            ],
            [
                [
                    -3.04354,
                    0.0,
                    0.33652
                ],
                [
                    -1e-05,
                    -1.14321,
                    -2e-05
                ],
                [
                    0.17593,
                    -0.0,
                    -2.2413
                ]
            ],
            [
                [
                    -1.14322,
                    8e-05,
                    -2e-05
                ],
                [
                    -0.0,
                    -3.04352,
                    -0.33656
                ],
                [
                    -0.0,
                    -0.17593,
                    -2.2413
                ]
            ],
            [
                [
                    -1.14322,
                    -8e-05,
                    -2e-05
                ],
                [
                    0.0,
                    -3.04357,
                    0.33644
                ],
                [
                    -0.0,
                    0.17593,
                    -2.2413
                ]
            ],
            [
                [
                    -3.04357,
                    -0.0,
                    -0.33648
                ],
                [
                    1e-05,
                    -1.14321,
                    -2e-05
                ],
                [
                    -0.17593,
                    -0.0,
                    -2.2413
                ]
            ]
        ]
    },
    "band_gap": 5.062500000000001,
    "is_direct": false,
    "formula": "ZrSiO4"
}