{
    "mp_id": "mp-540631",
    "nelements": 4,
    "nsites": 28,
    "elements": [
        "Ge",
        "K",
        "O",
        "Ta"
    ],
    "structure": {
        "@module": "pymatgen.core.structure",
        "@class": "Structure",
        "charge": null,
        "lattice": {
            "matrix": [
                [
                    7.04193875,
                    0.0,
                    0.0
                ],
                [
                    -3.52096937,
                    6.09849782,
                    0.0
                ],
                [
                    0.0,
                    0.0,
                    10.31346555
                ]
            ],
            "a": 7.04193875,
            "b": 7.041938722044019,
            "c": 10.31346555,
            "alpha": 90.0,
            "beta": 90.0,
            "gamma": 120.00000008434881,
            "volume": 442.9143369748808
        },
        "sites": [
            {
                "species": [
                    {
                        "element": "K",
                        "occu": 1
                    }
                ],
                "abc": [
                    0.666667,
                    0.333333,
                    0.0
                ],
                "xyz": [
                    3.5209728976360397,
                    2.03283057383406,
                    0.0
                ],
                "label": "K",
                "properties": {}
            },
            {
                "species": [
                    {
                        "element": "K",
                        "occu": 1
                    }
                ],
                "abc": [
                    0.666667,
                    0.333333,
                    0.5
                ],
                "xyz": [
                    3.5209728976360397,
                    2.03283057383406,
                    5.156732775
                ],
                "label": "K",
                "properties": {}
            },
            {
                "species": [
                    {
                        "element": "Ta",
                        "occu": 1
                    }
                ],
                "abc": [
                    0.333333,
                    0.666667,
                    0.0
                ],
                "xyz": [
                    -3.517636040228922e-06,
                    4.06566724616594,
                    0.0
                ],
                "label": "Ta",
                "properties": {}
            },
            {
                "species": [
                    {
                        "element": "Ta",
                        "occu": 1
                    }
                ],
                "abc": [
                    0.333333,
                    0.666667,
                    0.5
                ],
                "xyz": [
                    -3.517636040228922e-06,
                    4.06566724616594,
                    5.156732775
                ],
                "label": "Ta",
                "properties": {}
            },
            {
                "species": [
                    {
                        "element": "Ge",
                        "occu": 1
                    }
                ],
                "abc": [
                    0.07402569,
                    0.29183862,
                    0.25
                ],
                "xyz": [
                    -0.5062704670965819,
                    1.7797771878618085,
                    2.5783663875
                ],
                "label": "Ge",
                "properties": {}
            },
            {
                "species": [
                    {
                        "element": "Ge",
                        "occu": 1
                    }
                ],
                "abc": [
                    0.21781293,
                    0.92597431,
                    0.25
                ],
                "xyz": [
                    -1.726501870898847,
                    5.647052310911004,
                    2.5783663875
                ],
                "label": "Ge",
                "properties": {}
            },
            {
                "species": [
                    {
                        "element": "Ge",
                        "occu": 1
                    }
                ],
                "abc": [
                    0.70816138,
                    0.78218707,
                    0.25
                ],
                "xyz": [
                    2.232772347995429,
                    4.770166141227188,
                    2.5783663875
                ],
                "label": "Ge",
                "properties": {}
            },
            {
                "species": [
                    {
                        "element": "Ge",
                        "occu": 1
                    }
                ],
                "abc": [
                    0.70816138,
                    0.92597431,
                    0.75
                ],
                "xyz": [
                    1.7265018801585903,
                    5.647052310911004,
                    7.7350991625
                ],
                "label": "Ge",
                "properties": {}
            },
            {
                "species": [
                    {
                        "element": "Ge",
                        "occu": 1
                    }
                ],
                "abc": [
                    0.21781293,
                    0.29183862,
                    0.75
                ],
                "xyz": [
                    0.506270470014968,
                    1.7797771878618085,
                    7.7350991625
                ],
                "label": "Ge",
                "properties": {}
            },
            {
                "species": [
                    {
                        "element": "Ge",
                        "occu": 1
                    }
                ],
                "abc": [
                    0.07402569,
                    0.78218707,
                    0.75
                ],
                "xyz": [
                    -2.2327723401735584,
                    4.770166141227188,
                    7.7350991625
                ],
                "label": "Ge",
                "properties": {}
            },
            {
                "species": [
                    {
                        "element": "O",
                        "occu": 1
                    }
                ],
                "abc": [
                    0.27098743,
                    0.2026958,
                    0.25
                ],
                "xyz": [
                    1.1945911808522662,
                    1.236139894423156,
                    2.5783663875
                ],
                "label": "O",
                "properties": {}
            },
            {
                "species": [
                    {
                        "element": "O",
                        "occu": 1
                    }
                ],
                "abc": [
                    0.93170837,
                    0.72901257,
                    0.25
                ],
                "xyz": [
                    3.9942023450873565,
                    4.4458815688975974,
                    2.5783663875
                ],
                "label": "O",
                "properties": {}
            },
            {
                "species": [
                    {
                        "element": "O",
                        "occu": 1
                    }
                ],
                "abc": [
                    0.7973042,
                    0.06829163,
                    0.25
                ],
                "xyz": [
                    5.374114604060377,
                    0.41647635667924665,
                    2.5783663875
                ],
                "label": "O",
                "properties": {}
            },
            {
                "species": [
                    {
                        "element": "O",
                        "occu": 1
                    }
                ],
                "abc": [
                    0.7973042,
                    0.72901257,
                    0.75
                ],
                "xyz": [
                    3.0477364122027693,
                    4.4458815688975974,
                    7.7350991625
                ],
                "label": "O",
                "properties": {}
            },
            {
                "species": [
                    {
                        "element": "O",
                        "occu": 1
                    }
                ],
                "abc": [
                    0.93170837,
                    0.2026958,
                    0.75
                ],
                "xyz": [
                    5.847347571174692,
                    1.236139894423156,
                    7.7350991625
                ],
                "label": "O",
                "properties": {}
            },
            {
                "species": [
                    {
                        "element": "O",
                        "occu": 1
                    }
                ],
                "abc": [
                    0.27098743,
                    0.06829163,
                    0.75
                ],
                "xyz": [
                    1.6678241466225392,
                    0.41647635667924665,
                    7.7350991625
                ],
                "label": "O",
                "properties": {}
            },
            {
                "species": [
                    {
                        "element": "O",
                        "occu": 1
                    }
                ],
                "abc": [
                    0.09384307,
                    0.44146267,
                    0.10874574
                ],
                "xyz": [
                    -0.8935393880164554,
                    2.6922591306063794,
                    1.1215454431992569
                ],
                "label": "O",
                "properties": {}
            },
            {
                "species": [
                    {
                        "element": "O",
                        "occu": 1
                    }
                ],
                "abc": [
                    0.34761961,
                    0.90615693,
                    0.39125426
                ],
                "xyz": [
                    -0.7426347930243464,
                    5.526196062182893,
                    4.035187331800743
                ],
                "label": "O",
                "properties": {}
            },
            {
                "species": [
                    {
                        "element": "O",
                        "occu": 1
                    }
                ],
                "abc": [
                    0.55853733,
                    0.65238039,
                    0.39125426
                ],
                "xyz": [
                    1.6361742966698833,
                    3.9785403862257502,
                    4.035187331800743
                ],
                "label": "O",
                "properties": {}
            },
            {
                "species": [
                    {
                        "element": "O",
                        "occu": 1
                    }
                ],
                "abc": [
                    0.55853733,
                    0.65238039,
                    0.10874574
                ],
                "xyz": [
                    1.6361742966698833,
                    3.9785403862257502,
                    1.1215454431992569
                ],
                "label": "O",
                "properties": {}
            },
            {
                "species": [
                    {
                        "element": "O",
                        "occu": 1
                    }
                ],
                "abc": [
                    0.34761961,
                    0.90615693,
                    0.10874574
                ],
                "xyz": [
                    -0.7426347930243464,
                    5.526196062182893,
                    1.1215454431992569
                ],
                "label": "O",
                "properties": {}
            },
            {
                "species": [
                    {
                        "element": "O",
                        "occu": 1
                    }
                ],
                "abc": [
                    0.55853733,
                    0.90615693,
                    0.89125426
                ],
                "xyz": [
                    0.7426348725053038,
                    5.526196062182893,
                    9.191920106800742
                ],
                "label": "O",
                "properties": {}
            },
            {
                "species": [
                    {
                        "element": "O",
                        "occu": 1
                    }
                ],
                "abc": [
                    0.34761961,
                    0.44146267,
                    0.89125426
                ],
                "xyz": [
                    0.8935394628504696,
                    2.6922591306063794,
                    9.191920106800742
                ],
                "label": "O",
                "properties": {}
            },
            {
                "species": [
                    {
                        "element": "O",
                        "occu": 1
                    }
                ],
                "abc": [
                    0.09384307,
                    0.65238039,
                    0.89125426
                ],
                "xyz": [
                    -1.636174219726692,
                    3.9785403862257502,
                    9.191920106800742
                ],
                "label": "O",
                "properties": {}
            },
            {
                "species": [
                    {
                        "element": "O",
                        "occu": 1
                    }
                ],
                "abc": [
                    0.34761961,
                    0.44146267,
                    0.60874574
                ],
                "xyz": [
                    0.8935394628504696,
                    2.6922591306063794,
                    6.278278218199257
                ],
                "label": "O",
                "properties": {}
            },
            {
                "species": [
                    {
                        "element": "O",
                        "occu": 1
                    }
                ],
                "abc": [
                    0.09384307,
                    0.65238039,
                    0.60874574
                ],
                "xyz": [
                    -1.636174219726692,
                    3.9785403862257502,
                    6.278278218199257
                ],
                "label": "O",
                "properties": {}
            },
            {
                "species": [
                    {
                        "element": "O",
                        "occu": 1
                    }
                ],
                "abc": [
                    0.09384307,
                    0.44146267,
                    0.39125426
                ],
                "xyz": [
                    -0.8935393880164554,
                    2.6922591306063794,
                    4.035187331800743
                ],
                "label": "O",
                "properties": {}
            },
            {
                "species": [
                    {
                        "element": "O",
                        "occu": 1
                    }
                ],
                "abc": [
                    0.55853733,
                    0.90615693,
                    0.60874574
                ],
                "xyz": [
                    0.7426348725053038,
                    5.526196062182893,
                    6.278278218199257
                ],
                "label": "O",
                "properties": {}
            }
        ]
    },
    "spacegroup": {
        "source": "spglib",
        "symbol": "P-6c2",
        "number": 188,
        "point_group": "-6m2",
        "crystal_system": "hexagonal",
        "hall": "P -6c 2"
    },
    "dielectric": {
        "epsilon_ionic": [
            [
                5.58763463,
                -0.00053916,
                -0.0
            ],
            [
                -0.00053916,
                5.58709144,
                0.0
            ],
            [
                -0.0,
                0.0,
                8.09213036
            ]
        ],
        "epsilon_ionic_avg": 6.422285476666667,
        "epsilon_ionic_eig": [
            5.587966738030989,
            5.586759331969011,
            8.09213036
        ],
        "epsilon_electronic": [
            [
                3.08789591,
                2.5e-07,
                -0.0
            ],
            [
                2.5e-07,
                3.08789584,
                0.0
            ],
            [
                0.0,
                -0.0,
                3.42316899
            ]
        ],
        "epsilon_electronic_avg": 3.19965358,
        "epsilon_electronic_eig": [
            3.087896127438111,
            3.0878956225618888,
            3.42316899
        ]
    },
    "phonon": {
        "lowest_freq": -0.10853801157834454,
        "frequency": [
            -0.10853801157834454,
            -0.014577351705973761,
            -0.01457735049884022,
            1.7384872187121394,
            1.9028131311997767,
            1.9028131440439247,
            2.0028344864947303,
            2.28982398218676,
            2.2898241422864825,
            2.746718330652534,
            2.7467185575488635,
            2.920426580304293,
            2.920426726755576,
            3.128304759031481,
            3.222470027497278,
            3.2224702664010936,
            3.421288773497246,
            3.4212887984995333,
            3.6305879437542248,
            3.6424459322150486,
            4.265156588695304,
            4.265156683242878,
            4.378596331411152,
            4.378596568633413,
            4.432253189937313,
            4.49490997985185,
            4.494910012475435,
            5.552693436968334,
            5.629561080258895,
            5.629561123672604,
            6.093763781665206,
            6.093763801718506,
            6.339573673094206,
            6.480231611928855,
            7.104221717205319,
            7.185851915346136,
            7.426256383471956,
            7.426256432837366,
            7.535632543128146,
            7.535632624209638,
            8.041787643906977,
            8.87003964953518,
            9.051355861332205,
            9.051356158348634,
            9.329823447060388,
            9.329823447060388,
            10.956283729209245,
            11.055139742899325,
            11.476973550327928,
            11.476973624859813,
            12.378433755076545,
            12.378433922900774,
            12.399953058828391,
            12.399953265780898,
            12.836188622603334,
            13.15344806879725,
            13.153448458991718,
            13.449057083620566,
            13.45710357335875,
            14.18128382795514,
            14.908231441788276,
            14.966053291486222,
            16.23847469016267,
            16.23847499117632,
            16.36558747786497,
            16.36558777654063,
            21.79482746867439,
            22.894664035440897,
            22.894664248940543,
            23.030404331576673,
            23.030404756059237,
            23.508237183207815,
            23.50823770302588,
            23.521965832326828,
            23.521966144035638,
            24.388044669098893,
            24.43562677753938,
            26.562304064899436,
            26.905612915874897,
            26.90561305212907,
            27.005851557335422,
            27.00585164783438,
            28.16483939022121,
            28.607923230947794
        ]
    },
    "born_effective_charge": {
        "avg_abs_trace": 2.6390099999999994,
        "tensors": [
            [
                [
                    1.37569,
                    -0.00045,
                    0.00011
                ],
                [
                    0.0,
                    1.37562,
                    0.0
                ],
                [
                    0.0,
                    -0.0,
                    1.0585
                ]
            ],
            [
                [
                    1.37569,
                    -0.00045,
                    -0.00011
                ],
                [
                    0.0,
                    1.37562,
                    0.0
                ],
                [
                    0.0,
                    -0.0,
                    1.0585
                ]
            ],
            [
                [
                    5.5897,
                    -0.00019,
                    0.00055
                ],
                [
                    0.0,
                    5.58909,
                    0.0
                ],
                [
                    0.0,
                    -0.0,
                    7.91231
                ]
            ],
            [
                [
                    5.5897,
                    -0.00019,
                    -0.00055
                ],
                [
                    0.0,
                    5.58909,
                    0.0
                ],
                [
                    0.0,
                    -0.0,
                    7.91231
                ]
            ],
            [
                [
                    2.79219,
                    0.26738,
                    0.0
                ],
                [
                    -0.43252,
                    4.36046,
                    0.0
                ],
                [
                    4e-05,
                    -7e-05,
                    3.68652
                ]
            ],
            [
                [
                    4.03961,
                    -0.28798,
                    0.0
                ],
                [
                    -0.98771,
                    3.11314,
                    0.0
                ],
                [
                    -8e-05,
                    0.0,
                    3.68652
                ]
            ],
            [
                [
                    3.89729,
                    1.07022,
                    0.0
                ],
                [
                    0.37006,
                    3.25589,
                    0.0
                ],
                [
                    4e-05,
                    7e-05,
                    3.68652
                ]
            ],
            [
                [
                    4.0396,
                    0.28711,
                    0.0
                ],
                [
                    0.98771,
                    3.11314,
                    0.0
                ],
                [
                    8e-05,
                    0.0,
                    3.68652
                ]
            ],
            [
                [
                    2.79276,
                    -0.26775,
                    0.0
                ],
                [
                    0.43252,
                    4.36046,
                    0.0
                ],
                [
                    -4e-05,
                    -7e-05,
                    3.68652
                ]
            ],
            [
                [
                    3.89704,
                    -1.07026,
                    0.0
                ],
                [
                    -0.37006,
                    3.25589,
                    0.0
                ],
                [
                    -4e-05,
                    7e-05,
                    3.68652
                ]
            ],
            [
                [
                    -1.97699,
                    0.81713,
                    0.0
                ],
                [
                    1.12123,
                    -2.34595,
                    0.0
                ],
                [
                    1e-05,
                    3e-05,
                    -1.03856
                ]
            ],
            [
                [
                    -3.09277,
                    -0.47721,
                    0.0
                ],
                [
                    -0.17268,
                    -1.22989,
                    0.0
                ],
                [
                    2e-05,
                    -2e-05,
                    -1.03856
                ]
            ],
            [
                [
                    -1.41461,
                    -0.79575,
                    0.0
                ],
                [
                    -0.49214,
                    -2.90872,
                    0.0
                ],
                [
                    -3e-05,
                    -1e-05,
                    -1.03856
                ]
            ],
            [
                [
                    -3.09298,
                    0.47666,
                    0.0
                ],
                [
                    0.17268,
                    -1.22989,
                    0.0
                ],
                [
                    -2e-05,
                    -2e-05,
                    -1.03856
                ]
            ],
            [
                [
                    -1.97683,
                    -0.81675,
                    0.0
                ],
                [
                    -1.12123,
                    -2.34595,
                    0.0
                ],
                [
                    -1e-05,
                    3e-05,
                    -1.03856
                ]
            ],
            [
                [
                    -1.41509,
                    0.79655,
                    0.0
                ],
                [
                    0.49214,
                    -2.90872,
                    0.0
                ],
                [
                    3e-05,
                    -1e-05,
                    -1.03856
                ]
            ],
            [
                [
                    -1.27696,
                    -0.39097,
                    0.23201
                ],
                [
                    -0.45642,
                    -2.4595,
                    1.27369
                ],
                [
                    0.45186,
                    1.51985,
                    -2.81916
                ]
            ],
            [
                [
                    -1.79703,
                    0.75675,
                    -0.98658
                ],
                [
                    0.69119,
                    -1.93951,
                    0.83822
                ],
                [
                    -1.09017,
                    1.15127,
                    -2.81907
                ]
            ],
            [
                [
                    -2.53108,
                    -0.26731,
                    1.21883
                ],
                [
                    -0.33279,
                    -1.20582,
                    0.43568
                ],
                [
                    1.54212,
                    0.36848,
                    -2.81907
                ]
            ],
            [
                [
                    -2.53108,
                    -0.26731,
                    -1.21883
                ],
                [
                    -0.33279,
                    -1.20582,
                    -0.43568
                ],
                [
                    -1.54216,
                    -0.3686,
                    -2.81916
                ]
            ],
            [
                [
                    -1.79703,
                    0.75675,
                    0.98658
                ],
                [
                    0.69119,
                    -1.93951,
                    -0.83822
                ],
                [
                    1.0903,
                    -1.15125,
                    -2.81916
                ]
            ],
            [
                [
                    -1.79746,
                    -0.75633,
                    0.98715
                ],
                [
                    -0.69119,
                    -1.93951,
                    0.83822
                ],
                [
                    1.09018,
                    1.15127,
                    -2.81907
                ]
            ],
            [
                [
                    -1.27682,
                    0.39087,
                    0.23274
                ],
                [
                    0.45642,
                    -2.4595,
                    -1.27369
                ],
                [
                    0.45194,
                    -1.51975,
                    -2.81907
                ]
            ],
            [
                [
                    -2.53064,
                    0.26794,
                    -1.21969
                ],
                [
                    0.33279,
                    -1.20582,
                    0.43568
                ],
                [
                    -1.54212,
                    0.36848,
                    -2.81907
                ]
            ],
            [
                [
                    -1.27682,
                    0.39087,
                    -0.23274
                ],
                [
                    0.45642,
                    -2.4595,
                    1.27369
                ],
                [
                    -0.45186,
                    1.51985,
                    -2.81916
                ]
            ],
            [
                [
                    -2.53064,
                    0.26794,
                    1.21969
                ],
                [
                    0.33279,
                    -1.20582,
                    -0.43568
                ],
                [
                    1.54216,
                    -0.3686,
                    -2.81916
                ]
            ],
            [
                [
                    -1.27696,
                    -0.39097,
                    -0.23201
                ],
                [
                    -0.45642,
                    -2.4595,
                    -1.27369
                ],
                [
                    -0.45194,
                    -1.51975,
                    -2.81907
                ]
            ],
            [
                [
                    -1.79746,
                    -0.75633,
                    -0.98715
                ],
                [
                    -0.69119,
                    -1.93951,
                    -0.83822
                ],
                [
                    -1.0903,
                    -1.15125,
                    -2.81916
                ]
            ]
        ]
    },
    "band_gap": 3.4119,
    "is_direct": false,
    "formula": "KTa(GeO3)3"
}