{
    "mp_id": "mp-550925",
    "nelements": 4,
    "nsites": 11,
    "elements": [
        "As",
        "Na",
        "O",
        "Sc"
    ],
    "structure": {
        "@module": "pymatgen.core.structure",
        "@class": "Structure",
        "charge": null,
        "lattice": {
            "matrix": [
                [
                    3.46626992,
                    -4.37130083,
                    0.00037418
                ],
                [
                    3.46626992,
                    4.37130083,
                    0.00037418
                ],
                [
                    -1.01448168,
                    0.0,
                    4.72782017
                ]
            ],
            "a": 5.5788258840607465,
            "b": 5.5788258840607465,
            "c": 4.835437585050029,
            "alpha": 97.48632245348702,
            "beta": 97.48632245348702,
            "gamma": 103.17392871349182,
            "volume": 143.27620778973963
        },
        "sites": [
            {
                "species": [
                    {
                        "element": "Na",
                        "occu": 1
                    }
                ],
                "abc": [
                    0.24708355,
                    0.75291645,
                    0.5
                ],
                "xyz": [
                    2.9590290799999996,
                    2.2111477756113063,
                    2.364284265
                ],
                "label": "Na",
                "properties": {}
            },
            {
                "species": [
                    {
                        "element": "Sc",
                        "occu": 1
                    }
                ],
                "abc": [
                    0.63170364,
                    0.36829636,
                    0.5
                ],
                "xyz": [
                    2.959029079999999,
                    -1.1514324616920426,
                    2.364284265
                ],
                "label": "Sc",
                "properties": {}
            },
            {
                "species": [
                    {
                        "element": "As",
                        "occu": 1
                    }
                ],
                "abc": [
                    0.74539508,
                    0.82066787,
                    0.08704948
                ],
                "xyz": [
                    5.340086793697937,
                    0.3290400094034154,
                    0.4121402767666426
                ],
                "label": "As",
                "properties": {}
            },
            {
                "species": [
                    {
                        "element": "As",
                        "occu": 1
                    }
                ],
                "abc": [
                    0.17933213,
                    0.25460492,
                    0.91295052
                ],
                "xyz": [
                    0.5779713663020625,
                    0.3290400094034156,
                    4.316428253233358
                ],
                "label": "As",
                "properties": {}
            },
            {
                "species": [
                    {
                        "element": "O",
                        "occu": 1
                    }
                ],
                "abc": [
                    0.61935817,
                    0.03670357,
                    0.24915908
                ],
                "xyz": [
                    2.021319752959206,
                    -2.5469585365833183,
                    1.1782248091445169
                ],
                "label": "O",
                "properties": {}
            },
            {
                "species": [
                    {
                        "element": "O",
                        "occu": 1
                    }
                ],
                "abc": [
                    0.56801349,
                    0.6658677,
                    0.77752747
                ],
                "xyz": [
                    3.4881778797390544,
                    0.42775018939199416,
                    3.676471749058744
                ],
                "label": "O",
                "properties": {}
            },
            {
                "species": [
                    {
                        "element": "O",
                        "occu": 1
                    }
                ],
                "abc": [
                    0.84152235,
                    0.63670493,
                    0.30796118
                ],
                "xyz": [
                    4.8115137803262344,
                    -0.8953185580444587,
                    1.456538201464631
                ],
                "label": "O",
                "properties": {}
            },
            {
                "species": [
                    {
                        "element": "O",
                        "occu": 1
                    }
                ],
                "abc": [
                    0.96329643,
                    0.38064183,
                    0.75084092
                ],
                "xyz": [
                    3.896738407040793,
                    -2.5469585365833183,
                    3.5503437208554836
                ],
                "label": "O",
                "properties": {}
            },
            {
                "species": [
                    {
                        "element": "O",
                        "occu": 1
                    }
                ],
                "abc": [
                    0.0401238,
                    0.9598762,
                    0.0
                ],
                "xyz": [
                    3.46626992,
                    4.020514429514492,
                    0.00037418
                ],
                "label": "O",
                "properties": {}
            },
            {
                "species": [
                    {
                        "element": "O",
                        "occu": 1
                    }
                ],
                "abc": [
                    0.36329507,
                    0.15847765,
                    0.69203882
                ],
                "xyz": [
                    1.1065443796737646,
                    -0.8953185580444587,
                    3.2720303285353696
                ],
                "label": "O",
                "properties": {}
            },
            {
                "species": [
                    {
                        "element": "O",
                        "occu": 1
                    }
                ],
                "abc": [
                    0.3341323,
                    0.43198651,
                    0.22247253
                ],
                "xyz": [
                    2.4298802802609445,
                    0.4277501893919944,
                    1.052096780941256
                ],
                "label": "O",
                "properties": {}
            }
        ]
    },
    "spacegroup": {
        "source": "spglib",
        "symbol": "C2",
        "number": 5,
        "point_group": "2",
        "crystal_system": "monoclinic",
        "hall": "C 2y"
    },
    "dielectric": {
        "epsilon_ionic": [
            [
                12.54528148,
                -4.849e-05,
                -5.79838636
            ],
            [
                -4.849e-05,
                4.60672879,
                2.661e-05
            ],
            [
                -5.79838636,
                2.661e-05,
                12.22302642
            ]
        ],
        "epsilon_ionic_avg": 9.791678896666667,
        "epsilon_ionic_eig": [
            18.18477861146419,
            6.58352928885494,
            4.606728789680872
        ],
        "epsilon_electronic": [
            [
                3.50073532,
                0.0,
                -0.04179716
            ],
            [
                0.0,
                3.36388719,
                0.0
            ],
            [
                -0.04179673,
                0.0,
                3.45717879
            ]
        ],
        "epsilon_electronic_avg": 3.4406004333333335,
        "epsilon_electronic_eig": [
            3.526087485060599,
            3.4318266249394007,
            3.36388719
        ]
    },
    "phonon": {
        "lowest_freq": -0.1648028588543014,
        "frequency": [
            -0.1648028588543014,
            -0.15991171039076815,
            -0.12671650359813325,
            1.1132737555213992,
            3.1303525881266183,
            3.1888552823337246,
            4.377482981107408,
            4.447645435478006,
            5.625843639301224,
            5.66436778203471,
            6.331649759154183,
            7.253780733323358,
            7.4362519116113575,
            7.973063366276212,
            8.565459002217043,
            8.926666462271493,
            9.457648684419521,
            9.502732293964822,
            10.097836912841563,
            11.03479739577459,
            11.222303430363883,
            11.550549003523376,
            12.012555891548622,
            13.241168231723062,
            14.096949252707377,
            15.200338528956834,
            22.76546150648781,
            24.63318000339927,
            24.677634418935618,
            25.132357983410127,
            25.246589634025632,
            26.32240528944696,
            26.961174318124524
        ]
    },
    "born_effective_charge": {
        "avg_abs_trace": 2.427298484848485,
        "tensors": [
            [
                [
                    1.08436,
                    -6e-05,
                    0.01412
                ],
                [
                    -0.0,
                    1.16772,
                    0.0
                ],
                [
                    0.03373,
                    1e-05,
                    1.10627
                ]
            ],
            [
                [
                    4.23501,
                    -8e-05,
                    0.23814
                ],
                [
                    -0.0,
                    4.32557,
                    0.0
                ],
                [
                    -0.0483,
                    0.0,
                    4.66901
                ]
            ],
            [
                [
                    4.36579,
                    0.23675,
                    -0.20517
                ],
                [
                    0.56389,
                    3.61989,
                    0.49009
                ],
                [
                    -0.04026,
                    0.27404,
                    3.7455
                ]
            ],
            [
                [
                    4.36583,
                    -0.23694,
                    -0.20514
                ],
                [
                    -0.56389,
                    3.61989,
                    -0.49009
                ],
                [
                    -0.04016,
                    -0.27414,
                    3.74558
                ]
            ],
            [
                [
                    -1.3561,
                    -0.52865,
                    -0.32631
                ],
                [
                    -0.66588,
                    -2.74136,
                    -1.10121
                ],
                [
                    -0.4201,
                    -1.07088,
                    -1.8309
                ]
            ],
            [
                [
                    -1.6461,
                    -0.26615,
                    -0.68034
                ],
                [
                    -0.29754,
                    -1.53887,
                    -0.52061
                ],
                [
                    -0.62085,
                    -0.57464,
                    -2.41875
                ]
            ],
            [
                [
                    -2.28447,
                    -0.56559,
                    0.77701
                ],
                [
                    -0.59455,
                    -1.55394,
                    0.49233
                ],
                [
                    0.75932,
                    0.528,
                    -1.81248
                ]
            ],
            [
                [
                    -1.35607,
                    0.52895,
                    -0.32651
                ],
                [
                    0.66588,
                    -2.74136,
                    1.10121
                ],
                [
                    -0.42005,
                    1.07114,
                    -1.83114
                ]
            ],
            [
                [
                    -3.4776,
                    -6e-05,
                    0.61747
                ],
                [
                    -0.0,
                    -1.06475,
                    0.0
                ],
                [
                    0.65835,
                    2e-05,
                    -1.14129
                ]
            ],
            [
                [
                    -2.28448,
                    0.56581,
                    0.77722
                ],
                [
                    0.59455,
                    -1.55394,
                    -0.49233
                ],
                [
                    0.75943,
                    -0.52805,
                    -1.81259
                ]
            ],
            [
                [
                    -1.64617,
                    0.26603,
                    -0.68049
                ],
                [
                    0.29754,
                    -1.53887,
                    0.52061
                ],
                [
                    -0.62113,
                    0.5745,
                    -2.4192
                ]
            ]
        ]
    },
    "band_gap": 3.5801999999999996,
    "is_direct": false,
    "formula": "NaScAs2O7"
}