{
    "mp_id": "mp-5532",
    "nelements": 3,
    "nsites": 7,
    "elements": [
        "O",
        "Sr",
        "Ti"
    ],
    "structure": {
        "@module": "pymatgen.core.structure",
        "@class": "Structure",
        "charge": null,
        "lattice": {
            "matrix": [
                [
                    -1.95724406,
                    1.95724406,
                    6.26474902
                ],
                [
                    1.95724406,
                    -1.95724406,
                    6.26474902
                ],
                [
                    1.95724406,
                    1.95724406,
                    -6.26474902
                ]
            ],
            "a": 6.848991816639988,
            "b": 6.848991816639988,
            "c": 6.848991816639988,
            "alpha": 146.7901047595916,
            "beta": 146.7901047595916,
            "gamma": 47.67466720847969,
            "volume": 95.99611019769311
        },
        "sites": [
            {
                "species": [
                    {
                        "element": "Sr",
                        "occu": 1
                    }
                ],
                "abc": [
                    0.64529508,
                    0.64529508,
                    0.0
                ],
                "xyz": [
                    0.0,
                    0.0,
                    8.085223440081643
                ],
                "label": "Sr",
                "properties": {}
            },
            {
                "species": [
                    {
                        "element": "Sr",
                        "occu": 1
                    }
                ],
                "abc": [
                    0.35470492,
                    0.35470492,
                    0.0
                ],
                "xyz": [
                    0.0,
                    0.0,
                    4.444274599918357
                ],
                "label": "Sr",
                "properties": {}
            },
            {
                "species": [
                    {
                        "element": "Ti",
                        "occu": 1
                    }
                ],
                "abc": [
                    0.0,
                    0.0,
                    0.0
                ],
                "xyz": [
                    0.0,
                    0.0,
                    0.0
                ],
                "label": "Ti",
                "properties": {}
            },
            {
                "species": [
                    {
                        "element": "O",
                        "occu": 1
                    }
                ],
                "abc": [
                    0.84006136,
                    0.84006136,
                    0.0
                ],
                "xyz": [
                    0.0,
                    0.0,
                    10.525547163599734
                ],
                "label": "O",
                "properties": {}
            },
            {
                "species": [
                    {
                        "element": "O",
                        "occu": 1
                    }
                ],
                "abc": [
                    0.15993864,
                    0.15993864,
                    0.0
                ],
                "xyz": [
                    0.0,
                    0.0,
                    2.0039508764002654
                ],
                "label": "O",
                "properties": {}
            },
            {
                "species": [
                    {
                        "element": "O",
                        "occu": 1
                    }
                ],
                "abc": [
                    0.5,
                    0.0,
                    0.5
                ],
                "xyz": [
                    0.0,
                    1.95724406,
                    0.0
                ],
                "label": "O",
                "properties": {}
            },
            {
                "species": [
                    {
                        "element": "O",
                        "occu": 1
                    }
                ],
                "abc": [
                    0.0,
                    0.5,
                    0.5
                ],
                "xyz": [
                    1.95724406,
                    0.0,
                    0.0
                ],
                "label": "O",
                "properties": {}
            }
        ]
    },
    "spacegroup": {
        "source": "spglib",
        "symbol": "I4/mmm",
        "number": 139,
        "point_group": "4/mmm",
        "crystal_system": "tetragonal",
        "hall": "-I 4 2"
    },
    "dielectric": {
        "epsilon_ionic": [
            [
                31.66429755,
                -0.0,
                0.0
            ],
            [
                -0.0,
                31.66468127,
                3e-08
            ],
            [
                0.0,
                3e-08,
                11.37240309
            ]
        ],
        "epsilon_ionic_avg": 24.90046063666667,
        "epsilon_ionic_eig": [
            11.372403090000002,
            31.66468127,
            31.66429755
        ],
        "epsilon_electronic": [
            [
                4.98041998,
                0.0,
                0.0
            ],
            [
                0.0,
                4.98041998,
                0.0
            ],
            [
                0.0,
                -0.0,
                4.79606021
            ]
        ],
        "epsilon_electronic_avg": 4.918966723333333,
        "epsilon_electronic_eig": [
            4.98041998,
            4.98041998,
            4.79606021
        ]
    },
    "phonon": {
        "lowest_freq": -0.020319924306345223,
        "frequency": [
            -0.020319924306345223,
            -0.00970305717340948,
            -0.00970305717340948,
            3.2029907292924173,
            3.2029907292924173,
            3.956749183315879,
            3.956749183315879,
            6.085749364297312,
            6.356936645864345,
            6.658374716073401,
            6.658374716073401,
            7.700074580281377,
            7.700074580281377,
            8.700627184821062,
            8.700627184821062,
            8.865797347349329,
            12.249338652203845,
            14.455588858219542,
            17.00213319772686,
            18.32859967412536,
            18.32859967412536
        ]
    },
    "born_effective_charge": {
        "avg_abs_trace": 3.170984285714286,
        "tensors": [
            [
                [
                    2.3472,
                    0.0,
                    -4e-05
                ],
                [
                    -0.0,
                    2.34722,
                    -0.00017
                ],
                [
                    -0.0,
                    -0.0,
                    2.72313
                ]
            ],
            [
                [
                    2.3472,
                    0.0,
                    4e-05
                ],
                [
                    0.0,
                    2.34722,
                    0.00017
                ],
                [
                    0.0,
                    0.0,
                    2.72379
                ]
            ],
            [
                [
                    6.70494,
                    0.0,
                    0.0
                ],
                [
                    0.0,
                    6.70494,
                    -0.0
                ],
                [
                    0.0,
                    0.0,
                    5.0497
                ]
            ],
            [
                [
                    -2.02389,
                    -0.0,
                    -5e-05
                ],
                [
                    0.0,
                    -2.02391,
                    0.00021
                ],
                [
                    -0.0,
                    -0.0,
                    -3.7479
                ]
            ],
            [
                [
                    -2.02389,
                    -0.0,
                    5e-05
                ],
                [
                    -0.0,
                    -2.02391,
                    -0.00021
                ],
                [
                    0.0,
                    0.0,
                    -3.74829
                ]
            ],
            [
                [
                    -1.93201,
                    0.0,
                    0.0
                ],
                [
                    0.0,
                    -5.41952,
                    -0.0
                ],
                [
                    0.0,
                    0.0,
                    -1.50022
                ]
            ],
            [
                [
                    -5.41954,
                    0.0,
                    0.0
                ],
                [
                    0.0,
                    -1.93203,
                    -0.0
                ],
                [
                    0.0,
                    0.0,
                    -1.50022
                ]
            ]
        ]
    },
    "band_gap": 2.2395,
    "is_direct": false,
    "formula": "Sr2TiO4"
}