{
    "mp_id": "mp-505743",
    "nelements": 4,
    "nsites": 28,
    "elements": [
        "B",
        "Ga",
        "O",
        "Pb"
    ],
    "structure": {
        "@module": "pymatgen.core.structure",
        "@class": "Structure",
        "charge": null,
        "lattice": {
            "matrix": [
                [
                    6.8702707,
                    0.0,
                    0.0
                ],
                [
                    0.0,
                    5.90308535,
                    0.0
                ],
                [
                    0.0,
                    0.0,
                    8.37668976
                ]
            ],
            "a": 6.8702707,
            "b": 5.90308535,
            "c": 8.37668976,
            "alpha": 90.0,
            "beta": 90.0,
            "gamma": 90.0,
            "volume": 339.7233069865327
        },
        "sites": [
            {
                "species": [
                    {
                        "element": "Ga",
                        "occu": 1
                    }
                ],
                "abc": [
                    0.0,
                    0.0,
                    0.0
                ],
                "xyz": [
                    0.0,
                    0.0,
                    0.0
                ],
                "label": "Ga",
                "properties": {}
            },
            {
                "species": [
                    {
                        "element": "Ga",
                        "occu": 1
                    }
                ],
                "abc": [
                    0.0,
                    0.5,
                    0.0
                ],
                "xyz": [
                    0.0,
                    2.951542675,
                    0.0
                ],
                "label": "Ga",
                "properties": {}
            },
            {
                "species": [
                    {
                        "element": "Ga",
                        "occu": 1
                    }
                ],
                "abc": [
                    0.5,
                    0.5,
                    0.5
                ],
                "xyz": [
                    3.43513535,
                    2.951542675,
                    4.18834488
                ],
                "label": "Ga",
                "properties": {}
            },
            {
                "species": [
                    {
                        "element": "Ga",
                        "occu": 1
                    }
                ],
                "abc": [
                    0.5,
                    0.0,
                    0.5
                ],
                "xyz": [
                    3.43513535,
                    0.0,
                    4.18834488
                ],
                "label": "Ga",
                "properties": {}
            },
            {
                "species": [
                    {
                        "element": "B",
                        "occu": 1
                    }
                ],
                "abc": [
                    0.22177119,
                    0.75,
                    0.73573427
                ],
                "xyz": [
                    1.523628108761133,
                    4.4273140125,
                    6.163017725590075
                ],
                "label": "B",
                "properties": {}
            },
            {
                "species": [
                    {
                        "element": "B",
                        "occu": 1
                    }
                ],
                "abc": [
                    0.77822881,
                    0.25,
                    0.26426573
                ],
                "xyz": [
                    5.346642591238867,
                    1.4757713375,
                    2.2136720344099245
                ],
                "label": "B",
                "properties": {}
            },
            {
                "species": [
                    {
                        "element": "B",
                        "occu": 1
                    }
                ],
                "abc": [
                    0.72177119,
                    0.75,
                    0.76426573
                ],
                "xyz": [
                    4.958763458761133,
                    4.4273140125,
                    6.402016914409924
                ],
                "label": "B",
                "properties": {}
            },
            {
                "species": [
                    {
                        "element": "B",
                        "occu": 1
                    }
                ],
                "abc": [
                    0.27822881,
                    0.25,
                    0.23573427
                ],
                "xyz": [
                    1.911507241238867,
                    1.4757713375,
                    1.974672845590075
                ],
                "label": "B",
                "properties": {}
            },
            {
                "species": [
                    {
                        "element": "Pb",
                        "occu": 1
                    }
                ],
                "abc": [
                    0.94912263,
                    0.75,
                    0.35599465
                ],
                "xyz": [
                    6.52072939559594,
                    4.4273140125,
                    2.982056739269784
                ],
                "label": "Pb",
                "properties": {}
            },
            {
                "species": [
                    {
                        "element": "Pb",
                        "occu": 1
                    }
                ],
                "abc": [
                    0.05087737,
                    0.25,
                    0.64400535
                ],
                "xyz": [
                    0.349541304404059,
                    1.4757713375,
                    5.394633020730216
                ],
                "label": "Pb",
                "properties": {}
            },
            {
                "species": [
                    {
                        "element": "Pb",
                        "occu": 1
                    }
                ],
                "abc": [
                    0.44912263,
                    0.75,
                    0.14400535
                ],
                "xyz": [
                    3.085594045595941,
                    4.4273140125,
                    1.206288140730216
                ],
                "label": "Pb",
                "properties": {}
            },
            {
                "species": [
                    {
                        "element": "Pb",
                        "occu": 1
                    }
                ],
                "abc": [
                    0.55087737,
                    0.25,
                    0.85599465
                ],
                "xyz": [
                    3.784676654404059,
                    1.4757713375,
                    7.170401619269783
                ],
                "label": "Pb",
                "properties": {}
            },
            {
                "species": [
                    {
                        "element": "O",
                        "occu": 1
                    }
                ],
                "abc": [
                    0.18275923,
                    0.25,
                    0.09004144
                ],
                "xyz": [
                    1.255605383023561,
                    1.4757713375,
                    0.7542492084236544
                ],
                "label": "O",
                "properties": {}
            },
            {
                "species": [
                    {
                        "element": "O",
                        "occu": 1
                    }
                ],
                "abc": [
                    0.81724077,
                    0.75,
                    0.90995856
                ],
                "xyz": [
                    5.6146653169764384,
                    4.4273140125,
                    7.622440551576345
                ],
                "label": "O",
                "properties": {}
            },
            {
                "species": [
                    {
                        "element": "O",
                        "occu": 1
                    }
                ],
                "abc": [
                    0.68275923,
                    0.25,
                    0.40995856
                ],
                "xyz": [
                    4.690740733023561,
                    1.4757713375,
                    3.4340956715763458
                ],
                "label": "O",
                "properties": {}
            },
            {
                "species": [
                    {
                        "element": "O",
                        "occu": 1
                    }
                ],
                "abc": [
                    0.31724077,
                    0.75,
                    0.59004144
                ],
                "xyz": [
                    2.179529966976439,
                    4.4273140125,
                    4.942594088423655
                ],
                "label": "O",
                "properties": {}
            },
            {
                "species": [
                    {
                        "element": "O",
                        "occu": 1
                    }
                ],
                "abc": [
                    0.89335246,
                    0.25,
                    0.88873148
                ],
                "xyz": [
                    6.137573230710922,
                    1.4757713375,
                    7.444627887905645
                ],
                "label": "O",
                "properties": {}
            },
            {
                "species": [
                    {
                        "element": "O",
                        "occu": 1
                    }
                ],
                "abc": [
                    0.10664754,
                    0.75,
                    0.11126852
                ],
                "xyz": [
                    0.732697469289078,
                    4.4273140125,
                    0.9320618720943551
                ],
                "label": "O",
                "properties": {}
            },
            {
                "species": [
                    {
                        "element": "O",
                        "occu": 1
                    }
                ],
                "abc": [
                    0.39335246,
                    0.25,
                    0.61126852
                ],
                "xyz": [
                    2.702437880710922,
                    1.4757713375,
                    5.120406752094355
                ],
                "label": "O",
                "properties": {}
            },
            {
                "species": [
                    {
                        "element": "O",
                        "occu": 1
                    }
                ],
                "abc": [
                    0.60664754,
                    0.75,
                    0.38873148
                ],
                "xyz": [
                    4.167832819289078,
                    4.4273140125,
                    3.256283007905645
                ],
                "label": "O",
                "properties": {}
            },
            {
                "species": [
                    {
                        "element": "O",
                        "occu": 1
                    }
                ],
                "abc": [
                    0.82737961,
                    0.04589475,
                    0.19276225
                ],
                "xyz": [
                    5.684321892360427,
                    0.27092062636691244,
                    1.6147095656895598
                ],
                "label": "O",
                "properties": {}
            },
            {
                "species": [
                    {
                        "element": "O",
                        "occu": 1
                    }
                ],
                "abc": [
                    0.17262039,
                    0.54589475,
                    0.80723775
                ],
                "xyz": [
                    1.185948807639573,
                    3.222463301366912,
                    6.761980194310439
                ],
                "label": "O",
                "properties": {}
            },
            {
                "species": [
                    {
                        "element": "O",
                        "occu": 1
                    }
                ],
                "abc": [
                    0.32737961,
                    0.45410525,
                    0.30723775
                ],
                "xyz": [
                    2.2491865423604267,
                    2.6806220486330874,
                    2.57363531431044
                ],
                "label": "O",
                "properties": {}
            },
            {
                "species": [
                    {
                        "element": "O",
                        "occu": 1
                    }
                ],
                "abc": [
                    0.67262039,
                    0.95410525,
                    0.69276225
                ],
                "xyz": [
                    4.621084157639572,
                    5.632164723633087,
                    5.80305444568956
                ],
                "label": "O",
                "properties": {}
            },
            {
                "species": [
                    {
                        "element": "O",
                        "occu": 1
                    }
                ],
                "abc": [
                    0.17262039,
                    0.95410525,
                    0.80723775
                ],
                "xyz": [
                    1.185948807639573,
                    5.632164723633087,
                    6.761980194310439
                ],
                "label": "O",
                "properties": {}
            },
            {
                "species": [
                    {
                        "element": "O",
                        "occu": 1
                    }
                ],
                "abc": [
                    0.82737961,
                    0.45410525,
                    0.19276225
                ],
                "xyz": [
                    5.684321892360427,
                    2.6806220486330874,
                    1.6147095656895598
                ],
                "label": "O",
                "properties": {}
            },
            {
                "species": [
                    {
                        "element": "O",
                        "occu": 1
                    }
                ],
                "abc": [
                    0.67262039,
                    0.54589475,
                    0.69276225
                ],
                "xyz": [
                    4.621084157639572,
                    3.222463301366912,
                    5.80305444568956
                ],
                "label": "O",
                "properties": {}
            },
            {
                "species": [
                    {
                        "element": "O",
                        "occu": 1
                    }
                ],
                "abc": [
                    0.32737961,
                    0.04589475,
                    0.30723775
                ],
                "xyz": [
                    2.2491865423604267,
                    0.27092062636691244,
                    2.57363531431044
                ],
                "label": "O",
                "properties": {}
            }
        ]
    },
    "spacegroup": {
        "source": "spglib",
        "symbol": "Pnma",
        "number": 62,
        "point_group": "mmm",
        "crystal_system": "orthorhombic",
        "hall": "-P 2ac 2n"
    },
    "dielectric": {
        "epsilon_ionic": [
            [
                13.04957803,
                -3e-08,
                -0.0
            ],
            [
                -3e-08,
                7.4915355,
                -4e-08
            ],
            [
                -0.0,
                -4e-08,
                5.8746199
            ]
        ],
        "epsilon_ionic_avg": 8.805244476666667,
        "epsilon_ionic_eig": [
            13.04957803,
            7.491535500000004,
            5.874619899999999
        ],
        "epsilon_electronic": [
            [
                4.06112606,
                0.0,
                0.0
            ],
            [
                0.0,
                4.63148663,
                0.0
            ],
            [
                0.0,
                0.0,
                4.42032888
            ]
        ],
        "epsilon_electronic_avg": 4.370980523333333,
        "epsilon_electronic_eig": [
            4.06112606,
            4.63148663,
            4.42032888
        ]
    },
    "phonon": {
        "lowest_freq": -0.07063007399063836,
        "frequency": [
            -0.07063007399063836,
            -0.04556378721510503,
            -0.0314749635791141,
            1.593477909997136,
            1.6082189310252717,
            1.9826024284089017,
            2.0515905051718653,
            2.1526653813029495,
            2.318051643907218,
            2.521462154674227,
            2.8384873578016134,
            2.860255488872715,
            2.9797375203608314,
            3.195655592915869,
            3.4488950148947164,
            3.8686276116027485,
            3.9878915272854587,
            4.111117697811978,
            4.810421601928255,
            4.902383265119988,
            5.128560560825325,
            5.646669692987756,
            5.780500121068296,
            5.881186979570611,
            6.001400049954876,
            6.114491274505781,
            6.753147088782592,
            6.802223870416576,
            7.253178786603665,
            7.448520165102594,
            8.187384007283413,
            8.371446918428946,
            8.473837816099964,
            8.645847393070806,
            8.800492590115741,
            8.901320499569511,
            9.123273080146907,
            9.139022153622033,
            9.146894851402127,
            9.14983673908729,
            9.401035547884439,
            9.918525260799344,
            10.16360512027661,
            10.184586772181483,
            10.580881181738473,
            10.686087520024001,
            11.035142513619363,
            11.136093804968706,
            11.933466957710838,
            13.019100907288033,
            13.746782459386257,
            14.033413805839317,
            15.105209103743602,
            15.233844137171333,
            16.181691679213397,
            16.75931871708975,
            16.86551870133954,
            17.021752293233373,
            17.66219166788049,
            17.77129094409622,
            18.288870762954783,
            18.43054860457363,
            18.62866719681488,
            18.699567668822134,
            18.704300700107872,
            18.826187899304795,
            19.320574762704847,
            19.58860157982636,
            20.191290861591664,
            20.20004432053355,
            20.76542180977889,
            20.94641659305381,
            27.386278021955054,
            27.57329865864796,
            27.753430789618754,
            27.77382580645193,
            35.940627652274486,
            36.183602369235594,
            36.31670282842355,
            36.413394957977076,
            36.49686821257865,
            36.92215966534083,
            36.95465401131234,
            38.32402394592934
        ]
    },
    "born_effective_charge": {
        "avg_abs_trace": 2.429076666666667,
        "tensors": [
            [
                [
                    2.90247,
                    0.15654,
                    0.06966
                ],
                [
                    0.13807,
                    3.33308,
                    -0.06829
                ],
                [
                    0.08081,
                    -0.10037,
                    3.61556
                ]
            ],
            [
                [
                    2.90247,
                    -0.15654,
                    0.06966
                ],
                [
                    -0.13807,
                    3.33308,
                    0.06829
                ],
                [
                    0.08081,
                    0.10037,
                    3.61556
                ]
            ],
            [
                [
                    2.90247,
                    -0.15654,
                    -0.06966
                ],
                [
                    -0.13807,
                    3.33308,
                    -0.06829
                ],
                [
                    -0.08081,
                    -0.10037,
                    3.61556
                ]
            ],
            [
                [
                    2.90247,
                    0.15654,
                    -0.06966
                ],
                [
                    0.13807,
                    3.33308,
                    0.06829
                ],
                [
                    -0.08081,
                    0.10037,
                    3.61556
                ]
            ],
            [
                [
                    1.06099,
                    0.0,
                    -1.28347
                ],
                [
                    4e-05,
                    3.47904,
                    -0.00024
                ],
                [
                    -0.90148,
                    -0.0,
                    2.07958
                ]
            ],
            [
                [
                    1.06094,
                    0.0,
                    -1.28339
                ],
                [
                    -4e-05,
                    3.47904,
                    0.00024
                ],
                [
                    -0.90153,
                    -0.0,
                    2.07953
                ]
            ],
            [
                [
                    1.06099,
                    0.0,
                    1.28347
                ],
                [
                    4e-05,
                    3.47904,
                    0.00024
                ],
                [
                    0.90153,
                    -0.0,
                    2.07953
                ]
            ],
            [
                [
                    1.06094,
                    0.0,
                    1.28339
                ],
                [
                    -4e-05,
                    3.47904,
                    -0.00024
                ],
                [
                    0.90148,
                    -0.0,
                    2.07958
                ]
            ],
            [
                [
                    3.63768,
                    0.0,
                    -0.39968
                ],
                [
                    0.00012,
                    2.58553,
                    0.00081
                ],
                [
                    -0.15864,
                    -0.0,
                    2.81127
                ]
            ],
            [
                [
                    3.63777,
                    0.0,
                    -0.39948
                ],
                [
                    -0.00012,
                    2.58553,
                    -0.00081
                ],
                [
                    -0.15835,
                    -0.0,
                    2.81148
                ]
            ],
            [
                [
                    3.63768,
                    0.0,
                    0.39968
                ],
                [
                    0.00012,
                    2.58553,
                    -0.00081
                ],
                [
                    0.15835,
                    -0.0,
                    2.81148
                ]
            ],
            [
                [
                    3.63777,
                    0.0,
                    0.39948
                ],
                [
                    -0.00012,
                    2.58553,
                    0.00081
                ],
                [
                    0.15864,
                    -0.0,
                    2.81127
                ]
            ],
            [
                [
                    -1.98519,
                    0.0,
                    -0.89063
                ],
                [
                    -0.00033,
                    -1.76654,
                    -1e-05
                ],
                [
                    -0.65678,
                    -0.0,
                    -2.26957
                ]
            ],
            [
                [
                    -1.98531,
                    0.0,
                    -0.89057
                ],
                [
                    0.00033,
                    -1.76654,
                    1e-05
                ],
                [
                    -0.65721,
                    -0.0,
                    -2.26957
                ]
            ],
            [
                [
                    -1.98519,
                    0.0,
                    0.89063
                ],
                [
                    -0.00033,
                    -1.76654,
                    1e-05
                ],
                [
                    0.65721,
                    -0.0,
                    -2.26957
                ]
            ],
            [
                [
                    -1.98531,
                    0.0,
                    0.89057
                ],
                [
                    0.00033,
                    -1.76654,
                    -1e-05
                ],
                [
                    0.65678,
                    -0.0,
                    -2.26957
                ]
            ],
            [
                [
                    -2.51105,
                    0.0,
                    0.32393
                ],
                [
                    -9e-05,
                    -1.8076,
                    -0.00016
                ],
                [
                    0.05582,
                    -0.0,
                    -2.37806
                ]
            ],
            [
                [
                    -2.51095,
                    0.0,
                    0.32393
                ],
                [
                    9e-05,
                    -1.8076,
                    0.00016
                ],
                [
                    0.0558,
                    -0.0,
                    -2.37802
                ]
            ],
            [
                [
                    -2.51105,
                    0.0,
                    -0.32393
                ],
                [
                    -9e-05,
                    -1.8076,
                    0.00016
                ],
                [
                    -0.0558,
                    -0.0,
                    -2.37802
                ]
            ],
            [
                [
                    -2.51095,
                    0.0,
                    -0.32393
                ],
                [
                    9e-05,
                    -1.8076,
                    -0.00016
                ],
                [
                    -0.05582,
                    -0.0,
                    -2.37806
                ]
            ],
            [
                [
                    -1.55249,
                    0.47037,
                    0.37265
                ],
                [
                    0.60958,
                    -2.91219,
                    -0.01506
                ],
                [
                    0.22214,
                    -0.10318,
                    -1.92948
                ]
            ],
            [
                [
                    -1.55243,
                    -0.47025,
                    0.37249
                ],
                [
                    -0.60958,
                    -2.91219,
                    0.01506
                ],
                [
                    0.22211,
                    0.10296,
                    -1.9294
                ]
            ],
            [
                [
                    -1.55249,
                    -0.47037,
                    -0.37265
                ],
                [
                    -0.60932,
                    -2.91132,
                    -0.01465
                ],
                [
                    -0.22211,
                    -0.10296,
                    -1.9294
                ]
            ],
            [
                [
                    -1.55243,
                    0.47025,
                    -0.37249
                ],
                [
                    0.60932,
                    -2.91132,
                    0.01465
                ],
                [
                    -0.22214,
                    0.10318,
                    -1.92948
                ]
            ],
            [
                [
                    -1.55243,
                    0.47025,
                    0.37249
                ],
                [
                    0.60932,
                    -2.91132,
                    -0.01465
                ],
                [
                    0.22211,
                    -0.10296,
                    -1.9294
                ]
            ],
            [
                [
                    -1.55249,
                    -0.47037,
                    0.37265
                ],
                [
                    -0.60932,
                    -2.91132,
                    0.01465
                ],
                [
                    0.22214,
                    0.10318,
                    -1.92948
                ]
            ],
            [
                [
                    -1.55243,
                    -0.47025,
                    -0.37249
                ],
                [
                    -0.60958,
                    -2.91219,
                    -0.01506
                ],
                [
                    -0.22214,
                    -0.10318,
                    -1.92948
                ]
            ],
            [
                [
                    -1.55249,
                    0.47037,
                    -0.37265
                ],
                [
                    0.60958,
                    -2.91219,
                    0.01506
                ],
                [
                    -0.22211,
                    0.10296,
                    -1.9294
                ]
            ]
        ]
    },
    "band_gap": 3.1115000000000004,
    "is_direct": false,
    "formula": "GaBPbO4"
}