{
    "mp_id": "mp-555609",
    "nelements": 4,
    "nsites": 29,
    "elements": [
        "Cu",
        "O",
        "Sr",
        "Zn"
    ],
    "structure": {
        "@module": "pymatgen.core.structure",
        "@class": "Structure",
        "charge": null,
        "lattice": {
            "matrix": [
                [
                    10.97088263,
                    -1.7872026,
                    -0.00015869
                ],
                [
                    10.97088263,
                    1.7872026,
                    -0.00015869
                ],
                [
                    -1.69632198,
                    0.0,
                    11.07707152
                ]
            ],
            "a": 11.115500836213588,
            "b": 11.115500836213588,
            "c": 11.206204608118943,
            "alpha": 98.5932078043666,
            "beta": 98.5932078043666,
            "gamma": 18.504893261138335,
            "volume": 434.3795288085088
        },
        "sites": [
            {
                "species": [
                    {
                        "element": "Sr",
                        "occu": 1
                    }
                ],
                "abc": [
                    0.30674969,
                    0.30674969,
                    0.42989374
                ],
                "xyz": [
                    6.001391491331365,
                    0.0,
                    4.761866347763673
                ],
                "label": "Sr",
                "properties": {}
            },
            {
                "species": [
                    {
                        "element": "Sr",
                        "occu": 1
                    }
                ],
                "abc": [
                    0.3135924,
                    0.3135924,
                    0.1028093
                ],
                "xyz": [
                    6.70637315278161,
                    0.0,
                    1.1387264410652242
                ],
                "label": "Sr",
                "properties": {}
            },
            {
                "species": [
                    {
                        "element": "Sr",
                        "occu": 1
                    }
                ],
                "abc": [
                    0.31381731,
                    0.31381731,
                    0.7749652
                ],
                "xyz": [
                    5.571115248049555,
                    0.0,
                    8.584245346573256
                ],
                "label": "Sr",
                "properties": {}
            },
            {
                "species": [
                    {
                        "element": "Sr",
                        "occu": 1
                    }
                ],
                "abc": [
                    0.68618269,
                    0.68618269,
                    0.2250348
                ],
                "xyz": [
                    14.674328031950445,
                    0.0,
                    2.492508793426744
                ],
                "label": "Sr",
                "properties": {}
            },
            {
                "species": [
                    {
                        "element": "Sr",
                        "occu": 1
                    }
                ],
                "abc": [
                    0.49039667,
                    0.49039667,
                    0.18990845
                ],
                "xyz": [
                    10.438022739502953,
                    0.0,
                    2.1034738408072196
                ],
                "label": "Sr",
                "properties": {}
            },
            {
                "species": [
                    {
                        "element": "Sr",
                        "occu": 1
                    }
                ],
                "abc": [
                    0.5,
                    0.5,
                    0.5
                ],
                "xyz": [
                    10.12272164,
                    0.0,
                    5.53837707
                ],
                "label": "Sr",
                "properties": {}
            },
            {
                "species": [
                    {
                        "element": "Sr",
                        "occu": 1
                    }
                ],
                "abc": [
                    0.69325031,
                    0.69325031,
                    0.57010626
                ],
                "xyz": [
                    14.244051788668639,
                    0.0,
                    6.314887792236328
                ],
                "label": "Sr",
                "properties": {}
            },
            {
                "species": [
                    {
                        "element": "Sr",
                        "occu": 1
                    }
                ],
                "abc": [
                    0.50960333,
                    0.50960333,
                    0.81009155
                ],
                "xyz": [
                    9.807420540497047,
                    0.0,
                    8.973280299192782
                ],
                "label": "Sr",
                "properties": {}
            },
            {
                "species": [
                    {
                        "element": "Sr",
                        "occu": 1
                    }
                ],
                "abc": [
                    0.6864076,
                    0.6864076,
                    0.8971907
                ],
                "xyz": [
                    13.539070127218391,
                    0.0,
                    9.938027698934777
                ],
                "label": "Sr",
                "properties": {}
            },
            {
                "species": [
                    {
                        "element": "Zn",
                        "occu": 1
                    }
                ],
                "abc": [
                    0.11036356,
                    0.11036356,
                    0.70437554
                ],
                "xyz": [
                    1.2267236161015564,
                    0.0,
                    7.802383206331949
                ],
                "label": "Zn",
                "properties": {}
            },
            {
                "species": [
                    {
                        "element": "Zn",
                        "occu": 1
                    }
                ],
                "abc": [
                    0.10342759,
                    0.10342759,
                    0.03659509
                ],
                "xyz": [
                    2.2073068456604457,
                    0.0,
                    0.40533360336232255
                ],
                "label": "Zn",
                "properties": {}
            },
            {
                "species": [
                    {
                        "element": "Zn",
                        "occu": 1
                    }
                ],
                "abc": [
                    0.89657241,
                    0.89657241,
                    0.96340491
                ],
                "xyz": [
                    18.038136434339556,
                    0.0,
                    10.671420536637678
                ],
                "label": "Zn",
                "properties": {}
            },
            {
                "species": [
                    {
                        "element": "Zn",
                        "occu": 1
                    }
                ],
                "abc": [
                    0.88963644,
                    0.88963644,
                    0.29562446
                ],
                "xyz": [
                    19.018719663898445,
                    0.0,
                    3.274370933668052
                ],
                "label": "Zn",
                "properties": {}
            },
            {
                "species": [
                    {
                        "element": "Cu",
                        "occu": 1
                    }
                ],
                "abc": [
                    0.89373163,
                    0.89373163,
                    0.62445825
                ],
                "xyz": [
                    18.55076737582984,
                    0.0,
                    6.916885043959311
                ],
                "label": "Cu",
                "properties": {}
            },
            {
                "species": [
                    {
                        "element": "Cu",
                        "occu": 1
                    }
                ],
                "abc": [
                    0.10626837,
                    0.10626837,
                    0.37554175
                ],
                "xyz": [
                    1.6946759041701611,
                    0.0,
                    4.15986909604069
                ],
                "label": "Cu",
                "properties": {}
            },
            {
                "species": [
                    {
                        "element": "O",
                        "occu": 1
                    }
                ],
                "abc": [
                    0.79790533,
                    0.79790533,
                    0.26917255
                ],
                "xyz": [
                    17.050848137585188,
                    0.0,
                    2.9813903483771407
                ],
                "label": "O",
                "properties": {}
            },
            {
                "species": [
                    {
                        "element": "O",
                        "occu": 1
                    }
                ],
                "abc": [
                    0.19634082,
                    0.19634082,
                    0.07049572
                ],
                "xyz": [
                    4.1884807440639875,
                    0.0,
                    0.7808238176444428
                ],
                "label": "O",
                "properties": {}
            },
            {
                "species": [
                    {
                        "element": "O",
                        "occu": 1
                    }
                ],
                "abc": [
                    0.02457862,
                    0.02457862,
                    0.3493383
                ],
                "xyz": [
                    -0.053291926291092806,
                    0.0,
                    3.8696375330128006
                ],
                "label": "O",
                "properties": {}
            },
            {
                "species": [
                    {
                        "element": "O",
                        "occu": 1
                    }
                ],
                "abc": [
                    0.91067301,
                    0.91067301,
                    0.13554953
                ],
                "xyz": [
                    19.751837766919962,
                    0.0,
                    1.5012028089124718
                ],
                "label": "O",
                "properties": {}
            },
            {
                "species": [
                    {
                        "element": "O",
                        "occu": 1
                    }
                ],
                "abc": [
                    0.19015662,
                    0.19015662,
                    0.40083114
                ],
                "xyz": [
                    3.4924332456245644,
                    0.0,
                    4.439974853315077
                ],
                "label": "O",
                "properties": {}
            },
            {
                "species": [
                    {
                        "element": "O",
                        "occu": 1
                    }
                ],
                "abc": [
                    0.40591346,
                    0.40591346,
                    0.35455966
                ],
                "xyz": [
                    8.305010510715073,
                    0.0,
                    3.9273538831129486
                ],
                "label": "O",
                "properties": {}
            },
            {
                "species": [
                    {
                        "element": "O",
                        "occu": 1
                    }
                ],
                "abc": [
                    0.80365918,
                    0.80365918,
                    0.92950428
                ],
                "xyz": [
                    16.056962535936012,
                    0.0,
                    10.295930322355556
                ],
                "label": "O",
                "properties": {}
            },
            {
                "species": [
                    {
                        "element": "O",
                        "occu": 1
                    }
                ],
                "abc": [
                    0.20209467,
                    0.20209467,
                    0.73082745
                ],
                "xyz": [
                    3.194595142414814,
                    0.0,
                    8.09536379162286
                ],
                "label": "O",
                "properties": {}
            },
            {
                "species": [
                    {
                        "element": "O",
                        "occu": 1
                    }
                ],
                "abc": [
                    0.58142086,
                    0.58142086,
                    0.0875968
                ],
                "xyz": [
                    12.60880765016966,
                    0.0,
                    0.9701314871705893
                ],
                "label": "O",
                "properties": {}
            },
            {
                "species": [
                    {
                        "element": "O",
                        "occu": 1
                    }
                ],
                "abc": [
                    0.80984338,
                    0.80984338,
                    0.59916886
                ],
                "xyz": [
                    16.753010034375436,
                    0.0,
                    6.636779286684924
                ],
                "label": "O",
                "properties": {}
            },
            {
                "species": [
                    {
                        "element": "O",
                        "occu": 1
                    }
                ],
                "abc": [
                    0.97542138,
                    0.97542138,
                    0.6506617
                ],
                "xyz": [
                    20.298735206291095,
                    0.0,
                    7.2071166069872
                ],
                "label": "O",
                "properties": {}
            },
            {
                "species": [
                    {
                        "element": "O",
                        "occu": 1
                    }
                ],
                "abc": [
                    0.41857914,
                    0.41857914,
                    0.9124032
                ],
                "xyz": [
                    7.636635629830341,
                    0.0,
                    10.10662265282941
                ],
                "label": "O",
                "properties": {}
            },
            {
                "species": [
                    {
                        "element": "O",
                        "occu": 1
                    }
                ],
                "abc": [
                    0.08932699,
                    0.08932699,
                    0.86445047
                ],
                "xyz": [
                    0.49360551308003675,
                    0.0,
                    9.575551331087528
                ],
                "label": "O",
                "properties": {}
            },
            {
                "species": [
                    {
                        "element": "O",
                        "occu": 1
                    }
                ],
                "abc": [
                    0.59408654,
                    0.59408654,
                    0.64544034
                ],
                "xyz": [
                    11.940432769284929,
                    0.0,
                    7.149400256887051
                ],
                "label": "O",
                "properties": {}
            }
        ]
    },
    "spacegroup": {
        "source": "spglib",
        "symbol": "C2/m",
        "number": 12,
        "point_group": "2/m",
        "crystal_system": "monoclinic",
        "hall": "-C 2y"
    },
    "dielectric": {
        "epsilon_ionic": [
            [
                8.23999747,
                -0.0,
                0.34020061
            ],
            [
                -0.0,
                8.46632232,
                0.0
            ],
            [
                0.34020061,
                0.0,
                9.34645487
            ]
        ],
        "epsilon_ionic_avg": 8.68425822,
        "epsilon_ionic_eig": [
            8.143766048400481,
            9.44268629159952,
            8.46632232
        ],
        "epsilon_electronic": [
            [
                4.11248682,
                0.0,
                0.00221704
            ],
            [
                0.0,
                4.22378521,
                0.0
            ],
            [
                0.00221752,
                0.0,
                4.07829215
            ]
        ],
        "epsilon_electronic_avg": 4.13818806,
        "epsilon_electronic_eig": [
            4.112629995277919,
            4.078148974722081,
            4.22378521
        ]
    },
    "phonon": {
        "lowest_freq": -0.1096641287971342,
        "frequency": [
            -0.1096641287971342,
            -0.09146215483790217,
            -0.01578835698453479,
            1.9680496335348596,
            2.0500984966729106,
            2.104780852334468,
            2.178163871843061,
            2.448654407642484,
            2.5243251230977592,
            2.57247105007967,
            2.6168732667904826,
            2.6728554472704467,
            2.8507737452326363,
            2.886390146821376,
            2.9230326103170015,
            3.165305602731186,
            3.166560140763632,
            3.2292619930321464,
            3.4166282659314238,
            3.60772996504492,
            3.6799798712196172,
            3.8948274479098224,
            3.903036586527771,
            3.917393688598438,
            3.9443106502129495,
            4.084229128098266,
            4.148123513881552,
            4.255367272896453,
            4.412598439299382,
            4.438161271897496,
            4.468316298512648,
            4.50778384914531,
            4.570345329978775,
            4.621487138474189,
            4.7711519125349415,
            4.860995230525907,
            5.166297600541686,
            5.375585330526034,
            5.451020360092234,
            5.512569454782866,
            5.903551032352826,
            6.15197269952006,
            6.29224018478884,
            6.61912804827279,
            6.875384636873791,
            6.896226884326513,
            6.914337538868484,
            7.104620340331876,
            7.1173835331157065,
            7.4481216866769815,
            7.605766976741649,
            7.678549234060295,
            7.689112711098865,
            7.95749740554846,
            8.053146184815065,
            8.114124982728335,
            8.317744365014157,
            8.422304393391919,
            8.451323905558226,
            8.571035403103126,
            8.68564578757287,
            8.834930368919927,
            9.069452762080715,
            9.369344771578993,
            9.838585837823773,
            10.076144085026527,
            10.279328854641092,
            10.584216601677644,
            11.669957482330181,
            11.813807579047028,
            12.209758668548535,
            12.317554401306396,
            12.60984413763758,
            12.793858397248489,
            12.820803840804658,
            13.429709261217694,
            13.763160846679714,
            14.678165941249112,
            15.002092088624542,
            15.424292303265183,
            15.468108283058962,
            17.14700031006827,
            17.250631678589095,
            18.450629926693882,
            18.615601819227276,
            19.16931394741479,
            19.386723676735997
        ]
    },
    "born_effective_charge": {
        "avg_abs_trace": 2.1092396551724133,
        "tensors": [
            [
                [
                    2.53809,
                    0.0,
                    -0.04064
                ],
                [
                    2e-05,
                    2.40828,
                    -6e-05
                ],
                [
                    -0.10132,
                    0.0,
                    2.56605
                ]
            ],
            [
                [
                    2.42353,
                    0.0,
                    -0.01826
                ],
                [
                    0.00012,
                    2.47837,
                    0.0
                ],
                [
                    -0.00889,
                    0.0,
                    2.54889
                ]
            ],
            [
                [
                    2.38146,
                    0.0,
                    0.00122
                ],
                [
                    6e-05,
                    2.38274,
                    0.0001
                ],
                [
                    0.06504,
                    0.0,
                    2.56997
                ]
            ],
            [
                [
                    2.38115,
                    0.0,
                    0.00164
                ],
                [
                    -6e-05,
                    2.38274,
                    -0.0001
                ],
                [
                    0.06496,
                    0.0,
                    2.56997
                ]
            ],
            [
                [
                    2.76795,
                    0.0,
                    0.20791
                ],
                [
                    -9e-05,
                    2.35112,
                    5e-05
                ],
                [
                    0.12481,
                    0.0,
                    2.32183
                ]
            ],
            [
                [
                    2.51838,
                    0.0,
                    -0.14843
                ],
                [
                    -0.0,
                    2.39823,
                    0.0
                ],
                [
                    0.00965,
                    0.0,
                    2.66931
                ]
            ],
            [
                [
                    2.53791,
                    0.0,
                    -0.04077
                ],
                [
                    -2e-05,
                    2.40828,
                    6e-05
                ],
                [
                    -0.10136,
                    0.0,
                    2.56598
                ]
            ],
            [
                [
                    2.76793,
                    0.0,
                    0.20777
                ],
                [
                    9e-05,
                    2.35112,
                    -5e-05
                ],
                [
                    0.12482,
                    0.0,
                    2.32182
                ]
            ],
            [
                [
                    2.4234,
                    0.0,
                    -0.01813
                ],
                [
                    -0.00012,
                    2.47837,
                    -0.0
                ],
                [
                    -0.00896,
                    0.0,
                    2.54898
                ]
            ],
            [
                [
                    1.89839,
                    0.0,
                    -0.01196
                ],
                [
                    -4e-05,
                    2.2104,
                    -2e-05
                ],
                [
                    -0.02027,
                    0.0,
                    1.67807
                ]
            ],
            [
                [
                    1.47189,
                    0.0,
                    0.033
                ],
                [
                    -7e-05,
                    2.27227,
                    1e-05
                ],
                [
                    -0.01899,
                    0.0,
                    1.86348
                ]
            ],
            [
                [
                    1.47196,
                    0.0,
                    0.03293
                ],
                [
                    7e-05,
                    2.27227,
                    -1e-05
                ],
                [
                    -0.01901,
                    0.0,
                    1.86348
                ]
            ],
            [
                [
                    1.89819,
                    0.0,
                    -0.0118
                ],
                [
                    4e-05,
                    2.2104,
                    2e-05
                ],
                [
                    -0.02024,
                    0.0,
                    1.67802
                ]
            ],
            [
                [
                    1.34182,
                    0.0,
                    0.27494
                ],
                [
                    -2e-05,
                    -0.20186,
                    -1e-05
                ],
                [
                    0.24667,
                    0.0,
                    -0.18935
                ]
            ],
            [
                [
                    1.34181,
                    0.0,
                    0.2751
                ],
                [
                    2e-05,
                    -0.20186,
                    1e-05
                ],
                [
                    0.24673,
                    0.0,
                    -0.1893
                ]
            ],
            [
                [
                    -2.55297,
                    0.0,
                    -0.06878
                ],
                [
                    0.00014,
                    -2.21015,
                    0.00019
                ],
                [
                    -0.07128,
                    0.0,
                    -2.17957
                ]
            ],
            [
                [
                    -2.3791,
                    0.0,
                    -0.04209
                ],
                [
                    -0.0001,
                    -2.21543,
                    0.00013
                ],
                [
                    -0.08436,
                    0.0,
                    -2.28119
                ]
            ],
            [
                [
                    -2.3687,
                    0.0,
                    -0.18877
                ],
                [
                    -9e-05,
                    -1.90165,
                    -1e-05
                ],
                [
                    -0.14127,
                    0.0,
                    -1.7215
                ]
            ],
            [
                [
                    -2.01499,
                    0.0,
                    -0.11189
                ],
                [
                    0.00019,
                    -1.95954,
                    5e-05
                ],
                [
                    -0.05446,
                    0.0,
                    -2.6314
                ]
            ],
            [
                [
                    -2.4374,
                    0.0,
                    -0.10841
                ],
                [
                    -0.00012,
                    -1.77397,
                    1e-05
                ],
                [
                    -0.05074,
                    0.0,
                    -1.86069
                ]
            ],
            [
                [
                    -2.24686,
                    0.0,
                    -0.03722
                ],
                [
                    -0.00012,
                    -2.50907,
                    -0.00016
                ],
                [
                    -0.06263,
                    0.0,
                    -2.03823
                ]
            ],
            [
                [
                    -2.37911,
                    0.0,
                    -0.04218
                ],
                [
                    0.0001,
                    -2.21543,
                    -0.00013
                ],
                [
                    -0.08429,
                    0.0,
                    -2.28115
                ]
            ],
            [
                [
                    -2.55302,
                    0.0,
                    -0.0687
                ],
                [
                    -0.00014,
                    -2.21015,
                    -0.00019
                ],
                [
                    -0.07123,
                    0.0,
                    -2.17957
                ]
            ],
            [
                [
                    -2.08207,
                    0.0,
                    0.18493
                ],
                [
                    0.00015,
                    -2.53064,
                    -0.0001
                ],
                [
                    0.17282,
                    0.0,
                    -1.98111
                ]
            ],
            [
                [
                    -2.43727,
                    0.0,
                    -0.10844
                ],
                [
                    0.00012,
                    -1.77397,
                    -1e-05
                ],
                [
                    -0.05079,
                    0.0,
                    -1.86068
                ]
            ],
            [
                [
                    -2.36877,
                    0.0,
                    -0.18877
                ],
                [
                    9e-05,
                    -1.90165,
                    1e-05
                ],
                [
                    -0.14107,
                    0.0,
                    -1.72146
                ]
            ],
            [
                [
                    -2.08196,
                    0.0,
                    0.1848
                ],
                [
                    -0.00015,
                    -2.53064,
                    0.0001
                ],
                [
                    0.1728,
                    0.0,
                    -1.98109
                ]
            ],
            [
                [
                    -2.01484,
                    0.0,
                    -0.11195
                ],
                [
                    -0.00019,
                    -1.95954,
                    -5e-05
                ],
                [
                    -0.05453,
                    0.0,
                    -2.63135
                ]
            ],
            [
                [
                    -2.24679,
                    0.0,
                    -0.03705
                ],
                [
                    0.00012,
                    -2.50907,
                    0.00016
                ],
                [
                    -0.06261,
                    0.0,
                    -2.03818
                ]
            ]
        ]
    },
    "band_gap": 2.4235,
    "is_direct": false,
    "formula": "Sr9Zn4(CuO7)2"
}