{
    "mp_id": "mp-510607",
    "nelements": 3,
    "nsites": 24,
    "elements": [
        "Cr",
        "O",
        "Sr"
    ],
    "structure": {
        "@module": "pymatgen.core.structure",
        "@class": "Structure",
        "charge": null,
        "lattice": {
            "matrix": [
                [
                    6.69213823,
                    0.0,
                    0.0009083
                ],
                [
                    0.0,
                    7.38095284,
                    0.0
                ],
                [
                    -5.07688003,
                    0.0,
                    6.89012684
                ]
            ],
            "a": 6.692138291640156,
            "b": 7.38095284,
            "c": 8.55853718285439,
            "alpha": 90.0,
            "beta": 126.37627595114223,
            "gamma": 90.0,
            "volume": 340.3674186769835
        },
        "sites": [
            {
                "species": [
                    {
                        "element": "Sr",
                        "occu": 1
                    }
                ],
                "abc": [
                    0.67209473,
                    0.65772896,
                    0.7733524
                ],
                "xyz": [
                    0.5715334811019557,
                    4.854666435262247,
                    5.329106591661675
                ],
                "label": "Sr",
                "properties": {}
            },
            {
                "species": [
                    {
                        "element": "Sr",
                        "occu": 1
                    }
                ],
                "abc": [
                    0.32790527,
                    0.15772896,
                    0.7266476
                ],
                "xyz": [
                    -1.4947152961019552,
                    1.1641900152622464,
                    5.006991968338324
                ],
                "label": "Sr",
                "properties": {}
            },
            {
                "species": [
                    {
                        "element": "Sr",
                        "occu": 1
                    }
                ],
                "abc": [
                    0.32790527,
                    0.34227104,
                    0.2266476
                ],
                "xyz": [
                    1.0437247188980445,
                    2.526286404737754,
                    1.561928548338325
                ],
                "label": "Sr",
                "properties": {}
            },
            {
                "species": [
                    {
                        "element": "Sr",
                        "occu": 1
                    }
                ],
                "abc": [
                    0.67209473,
                    0.84227104,
                    0.2733524
                ],
                "xyz": [
                    3.109973496101956,
                    6.216762824737754,
                    1.8840431716616748
                ],
                "label": "Sr",
                "properties": {}
            },
            {
                "species": [
                    {
                        "element": "Cr",
                        "occu": 1
                    }
                ],
                "abc": [
                    0.188997,
                    0.66530482,
                    0.80314354
                ],
                "xyz": [
                    -2.812669350394196,
                    4.910583500644689,
                    5.5339325273017135
                ],
                "label": "Cr",
                "properties": {}
            },
            {
                "species": [
                    {
                        "element": "Cr",
                        "occu": 1
                    }
                ],
                "abc": [
                    0.811003,
                    0.16530482,
                    0.69685646
                ],
                "xyz": [
                    1.8894875353941964,
                    1.2201070806446888,
                    4.8021660326982865
                ],
                "label": "Cr",
                "properties": {}
            },
            {
                "species": [
                    {
                        "element": "Cr",
                        "occu": 1
                    }
                ],
                "abc": [
                    0.811003,
                    0.33469518,
                    0.19685646
                ],
                "xyz": [
                    4.427927550394196,
                    2.4703693393553112,
                    1.3571026126982864
                ],
                "label": "Cr",
                "properties": {}
            },
            {
                "species": [
                    {
                        "element": "Cr",
                        "occu": 1
                    }
                ],
                "abc": [
                    0.188997,
                    0.83469518,
                    0.30314354
                ],
                "xyz": [
                    -0.274229335394196,
                    6.160845759355311,
                    2.088869107301713
                ],
                "label": "Cr",
                "properties": {}
            },
            {
                "species": [
                    {
                        "element": "O",
                        "occu": 1
                    }
                ],
                "abc": [
                    0.90484257,
                    0.72114743,
                    0.62031687
                ],
                "xyz": [
                    2.9060572252533454,
                    5.322755171517201,
                    4.2748837837981215
                ],
                "label": "O",
                "properties": {}
            },
            {
                "species": [
                    {
                        "element": "O",
                        "occu": 1
                    }
                ],
                "abc": [
                    0.09515743,
                    0.22114743,
                    0.87968313
                ],
                "xyz": [
                    -3.829239040253345,
                    1.6322787515172013,
                    6.0612147762018775
                ],
                "label": "O",
                "properties": {}
            },
            {
                "species": [
                    {
                        "element": "O",
                        "occu": 1
                    }
                ],
                "abc": [
                    0.09515743,
                    0.27885257,
                    0.37968313
                ],
                "xyz": [
                    -1.2907990252533446,
                    2.058197668482799,
                    2.6161513562018777
                ],
                "label": "O",
                "properties": {}
            },
            {
                "species": [
                    {
                        "element": "O",
                        "occu": 1
                    }
                ],
                "abc": [
                    0.90484257,
                    0.77885257,
                    0.12031687
                ],
                "xyz": [
                    5.444497240253345,
                    5.748674088482798,
                    0.8298203637981219
                ],
                "label": "O",
                "properties": {}
            },
            {
                "species": [
                    {
                        "element": "O",
                        "occu": 1
                    }
                ],
                "abc": [
                    0.30238823,
                    0.50325546,
                    0.74290541
                ],
                "xyz": [
                    -1.7480178059229292,
                    3.7145048167325063,
                    5.118987164251513
                ],
                "label": "O",
                "properties": {}
            },
            {
                "species": [
                    {
                        "element": "O",
                        "occu": 1
                    }
                ],
                "abc": [
                    0.69761177,
                    0.00325546,
                    0.75709459
                ],
                "xyz": [
                    0.8248359909229297,
                    0.0240283967325064,
                    5.2171113957484865
                ],
                "label": "O",
                "properties": {}
            },
            {
                "species": [
                    {
                        "element": "O",
                        "occu": 1
                    }
                ],
                "abc": [
                    0.69761177,
                    0.49674454,
                    0.25709459
                ],
                "xyz": [
                    3.3632760059229296,
                    3.6664480232674936,
                    1.7720479757484866
                ],
                "label": "O",
                "properties": {}
            },
            {
                "species": [
                    {
                        "element": "O",
                        "occu": 1
                    }
                ],
                "abc": [
                    0.30238823,
                    0.99674454,
                    0.24290541
                ],
                "xyz": [
                    0.7904222090770705,
                    7.356924443267494,
                    1.6739237442515134
                ],
                "label": "O",
                "properties": {}
            },
            {
                "species": [
                    {
                        "element": "O",
                        "occu": 1
                    }
                ],
                "abc": [
                    0.16831164,
                    0.60126204,
                    0.9773812
                ],
                "xyz": [
                    -3.8356823353794383,
                    4.4378867617221935,
                    6.7344333164940196
                ],
                "label": "O",
                "properties": {}
            },
            {
                "species": [
                    {
                        "element": "O",
                        "occu": 1
                    }
                ],
                "abc": [
                    0.83168836,
                    0.10126204,
                    0.5226188
                ],
                "xyz": [
                    2.912500520379439,
                    0.7474103417221936,
                    3.6016652435059804
                ],
                "label": "O",
                "properties": {}
            },
            {
                "species": [
                    {
                        "element": "O",
                        "occu": 1
                    }
                ],
                "abc": [
                    0.83168836,
                    0.39873796,
                    0.0226188
                ],
                "xyz": [
                    5.45094053537944,
                    2.9430660782778064,
                    0.15660182350598
                ],
                "label": "O",
                "properties": {}
            },
            {
                "species": [
                    {
                        "element": "O",
                        "occu": 1
                    }
                ],
                "abc": [
                    0.16831164,
                    0.89873796,
                    0.4773812
                ],
                "xyz": [
                    -1.2972423203794385,
                    6.633542498277806,
                    3.2893698964940197
                ],
                "label": "O",
                "properties": {}
            },
            {
                "species": [
                    {
                        "element": "O",
                        "occu": 1
                    }
                ],
                "abc": [
                    0.38378611,
                    0.83955328,
                    0.88182792
                ],
                "xyz": [
                    -1.9085848580704519,
                    6.196703166347315,
                    6.076254812777085
                ],
                "label": "O",
                "properties": {}
            },
            {
                "species": [
                    {
                        "element": "O",
                        "occu": 1
                    }
                ],
                "abc": [
                    0.61621389,
                    0.33955328,
                    0.61817208
                ],
                "xyz": [
                    0.9854030430704532,
                    2.5062267463473153,
                    4.259843747222915
                ],
                "label": "O",
                "properties": {}
            },
            {
                "species": [
                    {
                        "element": "O",
                        "occu": 1
                    }
                ],
                "abc": [
                    0.61621389,
                    0.16044672,
                    0.11817208
                ],
                "xyz": [
                    3.523843058070453,
                    1.1842496736526846,
                    0.8147803272229143
                ],
                "label": "O",
                "properties": {}
            },
            {
                "species": [
                    {
                        "element": "O",
                        "occu": 1
                    }
                ],
                "abc": [
                    0.38378611,
                    0.66044672,
                    0.38182792
                ],
                "xyz": [
                    0.6298551569295479,
                    4.8747260936526855,
                    2.631191392777086
                ],
                "label": "O",
                "properties": {}
            }
        ]
    },
    "spacegroup": {
        "source": "spglib",
        "symbol": "P2_1/c",
        "number": 14,
        "point_group": "2/m",
        "crystal_system": "monoclinic",
        "hall": "-P 2ybc"
    },
    "dielectric": {
        "epsilon_ionic": [
            [
                7.74243875,
                8e-08,
                0.59424866
            ],
            [
                8e-08,
                4.99711734,
                -0.0
            ],
            [
                0.59424866,
                -0.0,
                5.33983116
            ]
        ],
        "epsilon_ionic_avg": 6.026462416666668,
        "epsilon_ionic_eig": [
            7.8813820507973436,
            5.2008878592026635,
            4.997117339999997
        ],
        "epsilon_electronic": [
            [
                3.89738282,
                0.0,
                0.01948168
            ],
            [
                0.0,
                3.59252234,
                0.0
            ],
            [
                0.01948147,
                0.0,
                3.55786428
            ]
        ],
        "epsilon_electronic_avg": 3.6825898133333332,
        "epsilon_electronic_eig": [
            3.898497016387858,
            3.5567500836121417,
            3.59252234
        ]
    },
    "phonon": {
        "lowest_freq": -0.07757290655884698,
        "frequency": [
            -0.07757290655884698,
            -0.053811639951998703,
            -0.03648970191932339,
            1.7372603478271178,
            1.9641377831672457,
            2.1855297151689514,
            2.223288404639475,
            2.3978205617241666,
            2.7812382238485402,
            2.8218980191610217,
            2.9353919903740864,
            3.0907484987657283,
            3.2209360135841196,
            3.225181556197972,
            3.414764237957588,
            3.4268198269279235,
            3.4373468577091377,
            3.6703912180858462,
            3.8113623391800258,
            3.88728598910766,
            3.9007631904582825,
            4.186618780394176,
            4.37223274657038,
            4.558149602704279,
            4.579868459084448,
            4.677790307791755,
            4.864655300493266,
            5.187847847089445,
            5.503423168649223,
            5.527542110042493,
            5.586281318492431,
            5.739336806903578,
            5.7563292536580635,
            5.9087699258258635,
            6.00949672088208,
            6.339244685255979,
            9.647690177878058,
            9.832111203283857,
            9.913345107493823,
            9.957341122085696,
            10.198577359016406,
            10.266460840702988,
            10.62298568505804,
            10.918642664056932,
            10.984896254754664,
            11.11472625513545,
            11.258870965990377,
            11.308468544445054,
            11.542748196314571,
            11.578444461366129,
            11.80253552152251,
            11.815880570464888,
            12.5399125956667,
            12.571278050035149,
            12.718994535566534,
            13.12006056698058,
            26.003683274678508,
            26.047283213766217,
            26.180490052771002,
            26.31955964770976,
            26.837018924920958,
            26.868418795593026,
            26.875103933428363,
            27.575344358025045,
            27.60939662850607,
            27.800392023873506,
            27.82188201074506,
            27.962875803487943,
            28.410729800158904,
            28.447920637381372,
            28.72634088781086,
            28.863179746458098
        ]
    },
    "born_effective_charge": {
        "avg_abs_trace": 1.9283258333333333,
        "tensors": [
            [
                [
                    3.0622,
                    0.45959,
                    0.03513
                ],
                [
                    -0.03188,
                    2.79593,
                    -0.09877
                ],
                [
                    -0.01277,
                    -0.2816,
                    2.72909
                ]
            ],
            [
                [
                    3.06214,
                    -0.45953,
                    0.03508
                ],
                [
                    0.03188,
                    2.79593,
                    0.09877
                ],
                [
                    -0.01302,
                    0.28191,
                    2.72949
                ]
            ],
            [
                [
                    3.06214,
                    0.45953,
                    0.03508
                ],
                [
                    -0.0319,
                    2.79556,
                    -0.09892
                ],
                [
                    -0.01302,
                    -0.28191,
                    2.72949
                ]
            ],
            [
                [
                    3.0622,
                    -0.45959,
                    0.03513
                ],
                [
                    0.0319,
                    2.79556,
                    0.09892
                ],
                [
                    -0.01277,
                    0.2816,
                    2.72909
                ]
            ],
            [
                [
                    3.2128,
                    0.26834,
                    -0.00748
                ],
                [
                    0.04742,
                    2.81703,
                    -0.10991
                ],
                [
                    -0.00379,
                    -0.05776,
                    2.7381
                ]
            ],
            [
                [
                    3.2125,
                    -0.26829,
                    -0.0075
                ],
                [
                    -0.04742,
                    2.81703,
                    0.10991
                ],
                [
                    -0.00361,
                    0.05763,
                    2.73807
                ]
            ],
            [
                [
                    3.2125,
                    0.26829,
                    -0.0075
                ],
                [
                    0.04765,
                    2.81697,
                    -0.1098
                ],
                [
                    -0.00361,
                    -0.05763,
                    2.73807
                ]
            ],
            [
                [
                    3.2128,
                    -0.26834,
                    -0.00748
                ],
                [
                    -0.04765,
                    2.81697,
                    0.1098
                ],
                [
                    -0.00379,
                    0.05776,
                    2.7381
                ]
            ],
            [
                [
                    -1.52603,
                    0.27014,
                    -0.82776
                ],
                [
                    0.37902,
                    -0.70291,
                    0.53433
                ],
                [
                    -0.83131,
                    0.5029,
                    -1.94453
                ]
            ],
            [
                [
                    -1.52611,
                    -0.27013,
                    -0.82777
                ],
                [
                    -0.37902,
                    -0.70291,
                    -0.53433
                ],
                [
                    -0.83217,
                    -0.50319,
                    -1.94527
                ]
            ],
            [
                [
                    -1.52611,
                    0.27013,
                    -0.82777
                ],
                [
                    0.37889,
                    -0.70274,
                    0.53383
                ],
                [
                    -0.83217,
                    0.50319,
                    -1.94527
                ]
            ],
            [
                [
                    -1.52603,
                    -0.27014,
                    -0.82776
                ],
                [
                    -0.37889,
                    -0.70274,
                    -0.53383
                ],
                [
                    -0.83131,
                    -0.5029,
                    -1.94453
                ]
            ],
            [
                [
                    -1.68554,
                    0.80126,
                    0.27158
                ],
                [
                    0.98673,
                    -1.96213,
                    -0.30873
                ],
                [
                    0.27771,
                    -0.41245,
                    -0.67429
                ]
            ],
            [
                [
                    -1.68526,
                    -0.80141,
                    0.27157
                ],
                [
                    -0.98673,
                    -1.96213,
                    0.30873
                ],
                [
                    0.27724,
                    0.41217,
                    -0.67387
                ]
            ],
            [
                [
                    -1.68526,
                    0.80141,
                    0.27157
                ],
                [
                    0.98636,
                    -1.96167,
                    -0.30873
                ],
                [
                    0.27724,
                    -0.41217,
                    -0.67387
                ]
            ],
            [
                [
                    -1.68554,
                    -0.80126,
                    0.27158
                ],
                [
                    -0.98636,
                    -1.96167,
                    0.30873
                ],
                [
                    0.27771,
                    0.41245,
                    -0.67429
                ]
            ],
            [
                [
                    -1.58693,
                    -0.50666,
                    0.93174
                ],
                [
                    -0.40765,
                    -0.8918,
                    0.62503
                ],
                [
                    0.90844,
                    0.48638,
                    -1.68679
                ]
            ],
            [
                [
                    -1.58685,
                    0.50676,
                    0.9317
                ],
                [
                    0.40765,
                    -0.8918,
                    -0.62503
                ],
                [
                    0.90921,
                    -0.48639,
                    -1.68741
                ]
            ],
            [
                [
                    -1.58685,
                    -0.50676,
                    0.9317
                ],
                [
                    -0.40836,
                    -0.89207,
                    0.62603
                ],
                [
                    0.90921,
                    0.48639,
                    -1.68741
                ]
            ],
            [
                [
                    -1.58693,
                    0.50666,
                    0.93174
                ],
                [
                    0.40836,
                    -0.89207,
                    -0.62603
                ],
                [
                    0.90844,
                    -0.48638,
                    -1.68679
                ]
            ],
            [
                [
                    -1.47643,
                    -1.03221,
                    -0.40315
                ],
                [
                    -0.95558,
                    -2.05567,
                    -0.46835
                ],
                [
                    -0.33804,
                    -0.3551,
                    -1.16144
                ]
            ],
            [
                [
                    -1.47648,
                    1.03247,
                    -0.40315
                ],
                [
                    0.95558,
                    -2.05567,
                    0.46835
                ],
                [
                    -0.33788,
                    0.35512,
                    -1.16113
                ]
            ],
            [
                [
                    -1.47648,
                    -1.03247,
                    -0.40315
                ],
                [
                    -0.95646,
                    -2.0565,
                    -0.469
                ],
                [
                    -0.33788,
                    -0.35512,
                    -1.16113
                ]
            ],
            [
                [
                    -1.47643,
                    1.03221,
                    -0.40315
                ],
                [
                    0.95646,
                    -2.0565,
                    0.469
                ],
                [
                    -0.33804,
                    0.3551,
                    -1.16144
                ]
            ]
        ]
    },
    "band_gap": 2.8518000000000003,
    "is_direct": false,
    "formula": "SrCrO4"
}