{
    "mp_id": "mp-560950",
    "nelements": 4,
    "nsites": 28,
    "elements": [
        "K",
        "Na",
        "O",
        "Tl"
    ],
    "structure": {
        "@module": "pymatgen.core.structure",
        "@class": "Structure",
        "charge": null,
        "lattice": {
            "matrix": [
                [
                    6.36411133,
                    0.0,
                    -0.00078746
                ],
                [
                    0.0,
                    6.93128946,
                    0.0
                ],
                [
                    -1.26037797,
                    0.0,
                    11.91886778
                ]
            ],
            "a": 6.364111378717976,
            "b": 6.93128946,
            "c": 11.985322765131668,
            "alpha": 90.0,
            "beta": 96.04348124789833,
            "gamma": 90.0,
            "volume": 525.7522303783817
        },
        "sites": [
            {
                "species": [
                    {
                        "element": "K",
                        "occu": 1
                    }
                ],
                "abc": [
                    0.42305638,
                    0.83589912,
                    0.85607058
                ],
                "xyz": [
                    1.613405401389663,
                    5.793858760079275,
                    10.203058913390917
                ],
                "label": "K",
                "properties": {}
            },
            {
                "species": [
                    {
                        "element": "K",
                        "occu": 1
                    }
                ],
                "abc": [
                    0.07071451,
                    0.35904948,
                    0.14009792
                ],
                "xyz": [
                    0.2734586822755759,
                    2.4886758763424806,
                    1.6697528998849727
                ],
                "label": "K",
                "properties": {}
            },
            {
                "species": [
                    {
                        "element": "K",
                        "occu": 1
                    }
                ],
                "abc": [
                    0.92928549,
                    0.85904948,
                    0.35990208
                ],
                "xyz": [
                    5.4604636627244245,
                    5.954320606342481,
                    4.288893530115027
                ],
                "label": "K",
                "properties": {}
            },
            {
                "species": [
                    {
                        "element": "K",
                        "occu": 1
                    }
                ],
                "abc": [
                    0.42305638,
                    0.66410088,
                    0.35607058
                ],
                "xyz": [
                    2.2435943863896632,
                    4.603075429920725,
                    4.243625023390917
                ],
                "label": "K",
                "properties": {}
            },
            {
                "species": [
                    {
                        "element": "K",
                        "occu": 1
                    }
                ],
                "abc": [
                    0.57694362,
                    0.33589912,
                    0.64392942
                ],
                "xyz": [
                    2.8601389736103373,
                    2.328214030079275,
                    7.674455296609082
                ],
                "label": "K",
                "properties": {}
            },
            {
                "species": [
                    {
                        "element": "K",
                        "occu": 1
                    }
                ],
                "abc": [
                    0.92928549,
                    0.64095052,
                    0.85990208
                ],
                "xyz": [
                    4.830274677724425,
                    4.442613583657519,
                    10.248327420115027
                ],
                "label": "K",
                "properties": {}
            },
            {
                "species": [
                    {
                        "element": "K",
                        "occu": 1
                    }
                ],
                "abc": [
                    0.57694362,
                    0.16410088,
                    0.14392942
                ],
                "xyz": [
                    3.490327958610337,
                    1.1374306999207249,
                    1.7150214066090823
                ],
                "label": "K",
                "properties": {}
            },
            {
                "species": [
                    {
                        "element": "K",
                        "occu": 1
                    }
                ],
                "abc": [
                    0.07071451,
                    0.14095052,
                    0.64009792
                ],
                "xyz": [
                    -0.3567303027244241,
                    0.9769688536575192,
                    7.629186789884972
                ],
                "label": "K",
                "properties": {}
            },
            {
                "species": [
                    {
                        "element": "Na",
                        "occu": 1
                    }
                ],
                "abc": [
                    0.64045511,
                    0.87698771,
                    0.58715494
                ],
                "xyz": [
                    3.335890470554724,
                    6.0786556708725366,
                    6.997717763452912
                ],
                "label": "Na",
                "properties": {}
            },
            {
                "species": [
                    {
                        "element": "Na",
                        "occu": 1
                    }
                ],
                "abc": [
                    0.35954489,
                    0.12301229,
                    0.41284506
                ],
                "xyz": [
                    1.7678428894452756,
                    0.8526337891274635,
                    4.920362556547087
                ],
                "label": "Na",
                "properties": {}
            },
            {
                "species": [
                    {
                        "element": "Na",
                        "occu": 1
                    }
                ],
                "abc": [
                    0.35954489,
                    0.37698771,
                    0.91284506
                ],
                "xyz": [
                    1.1376539044452756,
                    2.6130109408725364,
                    10.879796446547086
                ],
                "label": "Na",
                "properties": {}
            },
            {
                "species": [
                    {
                        "element": "Na",
                        "occu": 1
                    }
                ],
                "abc": [
                    0.64045511,
                    0.62301229,
                    0.08715494
                ],
                "xyz": [
                    3.9660794555547243,
                    4.318278519127464,
                    1.0382838734529125
                ],
                "label": "Na",
                "properties": {}
            },
            {
                "species": [
                    {
                        "element": "Tl",
                        "occu": 1
                    }
                ],
                "abc": [
                    0.85335937,
                    0.37233072,
                    0.4082976
                ],
                "xyz": [
                    4.91626473493479,
                    2.5807319951702112,
                    4.865773122921827
                ],
                "label": "Tl",
                "properties": {}
            },
            {
                "species": [
                    {
                        "element": "Tl",
                        "occu": 1
                    }
                ],
                "abc": [
                    0.85335937,
                    0.12766928,
                    0.9082976
                ],
                "xyz": [
                    4.28607574993479,
                    0.8849127348297888,
                    10.825207012921828
                ],
                "label": "Tl",
                "properties": {}
            },
            {
                "species": [
                    {
                        "element": "Tl",
                        "occu": 1
                    }
                ],
                "abc": [
                    0.14664063,
                    0.87233072,
                    0.0917024
                ],
                "xyz": [
                    0.8176576100652099,
                    6.046376725170211,
                    1.0928733070781722
                ],
                "label": "Tl",
                "properties": {}
            },
            {
                "species": [
                    {
                        "element": "Tl",
                        "occu": 1
                    }
                ],
                "abc": [
                    0.14664063,
                    0.62766928,
                    0.5917024
                ],
                "xyz": [
                    0.18746862506521,
                    4.350557464829789,
                    7.0523071970781706
                ],
                "label": "Tl",
                "properties": {}
            },
            {
                "species": [
                    {
                        "element": "O",
                        "occu": 1
                    }
                ],
                "abc": [
                    0.75555192,
                    0.50574044,
                    0.25418625
                ],
                "xyz": [
                    4.4880457846983415,
                    3.5054333812677623,
                    3.0290173383291017
                ],
                "label": "O",
                "properties": {}
            },
            {
                "species": [
                    {
                        "element": "O",
                        "occu": 1
                    }
                ],
                "abc": [
                    0.28357083,
                    0.8799629,
                    0.53212784
                ],
                "xyz": [
                    1.133994125300819,
                    6.099277573961034,
                    6.342138066331203
                ],
                "label": "O",
                "properties": {}
            },
            {
                "species": [
                    {
                        "element": "O",
                        "occu": 1
                    }
                ],
                "abc": [
                    0.28357083,
                    0.6200371,
                    0.03212784
                ],
                "xyz": [
                    1.7641831103008192,
                    4.297656616038966,
                    0.38270417633120335
                ],
                "label": "O",
                "properties": {}
            },
            {
                "species": [
                    {
                        "element": "O",
                        "occu": 1
                    }
                ],
                "abc": [
                    0.71642917,
                    0.3799629,
                    0.96787216
                ],
                "xyz": [
                    3.3395502496991805,
                    2.633632843961034,
                    11.535376143668795
                ],
                "label": "O",
                "properties": {}
            },
            {
                "species": [
                    {
                        "element": "O",
                        "occu": 1
                    }
                ],
                "abc": [
                    0.1981248,
                    0.10428652,
                    0.96274448
                ],
                "xyz": [
                    0.047466351102878335,
                    0.7228400568960792,
                    11.474668147689846
                ],
                "label": "O",
                "properties": {}
            },
            {
                "species": [
                    {
                        "element": "O",
                        "occu": 1
                    }
                ],
                "abc": [
                    0.8018752,
                    0.89571348,
                    0.03725552
                ],
                "xyz": [
                    5.056267008897121,
                    6.208449403103921,
                    0.4434121723101536
                ],
                "label": "O",
                "properties": {}
            },
            {
                "species": [
                    {
                        "element": "O",
                        "occu": 1
                    }
                ],
                "abc": [
                    0.8018752,
                    0.60428652,
                    0.53725552
                ],
                "xyz": [
                    4.426078023897121,
                    4.18848478689608,
                    6.402846062310153
                ],
                "label": "O",
                "properties": {}
            },
            {
                "species": [
                    {
                        "element": "O",
                        "occu": 1
                    }
                ],
                "abc": [
                    0.75555192,
                    0.99425956,
                    0.75418625
                ],
                "xyz": [
                    3.8578567996983413,
                    6.891500808732238,
                    8.988451228329101
                ],
                "label": "O",
                "properties": {}
            },
            {
                "species": [
                    {
                        "element": "O",
                        "occu": 1
                    }
                ],
                "abc": [
                    0.24444808,
                    0.49425956,
                    0.74581375
                ],
                "xyz": [
                    0.6156875753016589,
                    3.4258560787322376,
                    8.889062981670898
                ],
                "label": "O",
                "properties": {}
            },
            {
                "species": [
                    {
                        "element": "O",
                        "occu": 1
                    }
                ],
                "abc": [
                    0.24444808,
                    0.00574044,
                    0.24581375
                ],
                "xyz": [
                    1.2458765603016588,
                    0.039788651267762404,
                    2.929629091670898
                ],
                "label": "O",
                "properties": {}
            },
            {
                "species": [
                    {
                        "element": "O",
                        "occu": 1
                    }
                ],
                "abc": [
                    0.71642917,
                    0.1200371,
                    0.46787216
                ],
                "xyz": [
                    3.9697392346991807,
                    0.832011886038966,
                    5.575942253668797
                ],
                "label": "O",
                "properties": {}
            },
            {
                "species": [
                    {
                        "element": "O",
                        "occu": 1
                    }
                ],
                "abc": [
                    0.1981248,
                    0.39571348,
                    0.46274448
                ],
                "xyz": [
                    0.6776553361028783,
                    2.742804673103921,
                    5.515234257689846
                ],
                "label": "O",
                "properties": {}
            }
        ]
    },
    "spacegroup": {
        "source": "spglib",
        "symbol": "P2_1/c",
        "number": 14,
        "point_group": "2/m",
        "crystal_system": "monoclinic",
        "hall": "-P 2ybc"
    },
    "dielectric": {
        "epsilon_ionic": [
            [
                7.12083704,
                -1e-08,
                3.15930039
            ],
            [
                -1e-08,
                6.24118387,
                -2e-08
            ],
            [
                3.15930039,
                -2e-08,
                7.94169739
            ]
        ],
        "epsilon_ionic_avg": 7.101239433333333,
        "epsilon_ionic_eig": [
            10.717115906134701,
            4.3454185238653,
            6.24118387
        ],
        "epsilon_electronic": [
            [
                3.52968991,
                0.0,
                0.14351695
            ],
            [
                0.0,
                3.64651139,
                0.0
            ],
            [
                0.14351736,
                0.0,
                3.70993253
            ]
        ],
        "epsilon_electronic_avg": 3.628711276666667,
        "epsilon_electronic_eig": [
            3.450344337408244,
            3.7892781025917563,
            3.64651139
        ]
    },
    "phonon": {
        "lowest_freq": -0.06898564231827241,
        "frequency": [
            -0.06898564231827241,
            -0.055903671734416474,
            -0.033977868666824486,
            1.079911218535267,
            1.1898927551680185,
            1.3155564499164905,
            1.4296794318151174,
            1.5339519799725982,
            1.9143899422399537,
            2.034549977864557,
            2.1981727275738896,
            2.238736701041679,
            2.4473881703916995,
            2.4522936494428875,
            2.5027944992067113,
            2.813796821953214,
            2.8355955443285934,
            2.9232880375049652,
            3.0338230236293358,
            3.0525284322875126,
            3.064571022002346,
            3.122045913343159,
            3.158345886798207,
            3.1793932868560915,
            3.466971506348258,
            3.4840232225699697,
            3.525080775414266,
            3.672072592762881,
            3.7124319145466163,
            3.7845480336697928,
            3.978074027277634,
            4.011677392911115,
            4.124198221122402,
            4.146113529054921,
            4.209751739815022,
            4.230067443703067,
            4.4504077968952185,
            4.463405590968405,
            4.4781121384753115,
            4.719793003635693,
            4.825994328806632,
            4.841106134468699,
            5.101650511434135,
            5.12441928983377,
            5.412533949169492,
            5.4487574826630745,
            5.623305509476847,
            5.624514535942218,
            6.103122568465783,
            6.103454793565451,
            6.1914791888098994,
            6.20599549215437,
            6.271061085844287,
            6.4494649962557595,
            6.493640333448456,
            6.746583275339008,
            6.859160824586183,
            7.040388501190141,
            7.095175258028302,
            7.104535956219285,
            7.147877737579651,
            7.1586659209088745,
            7.998186330689005,
            8.042291667308158,
            8.159896408649379,
            8.199263284600455,
            8.40890214894002,
            8.819905081905274,
            10.49717156339094,
            10.50259853935905,
            10.809188370350189,
            10.959940850425932,
            11.522212330191582,
            11.8435792267831,
            12.455687605623604,
            12.58201596440472,
            14.555504719802906,
            14.933242299463,
            14.979326437585234,
            15.54104902939018,
            15.85994935923513,
            15.959676614890972,
            16.10520274920909,
            16.79149847373865
        ]
    },
    "born_effective_charge": {
        "avg_abs_trace": 1.617705476190476,
        "tensors": [
            [
                [
                    1.32561,
                    0.0943,
                    -0.07426
                ],
                [
                    0.04565,
                    1.01963,
                    0.10539
                ],
                [
                    0.0218,
                    0.15173,
                    1.11441
                ]
            ],
            [
                [
                    0.88481,
                    -0.00706,
                    -0.03248
                ],
                [
                    0.07956,
                    1.20142,
                    0.01232
                ],
                [
                    -0.11814,
                    0.10213,
                    1.15271
                ]
            ],
            [
                [
                    0.88477,
                    0.00709,
                    -0.03252
                ],
                [
                    -0.07956,
                    1.20142,
                    -0.01232
                ],
                [
                    -0.11827,
                    -0.10221,
                    1.15267
                ]
            ],
            [
                [
                    1.32561,
                    -0.0943,
                    -0.07426
                ],
                [
                    -0.04564,
                    1.01967,
                    -0.10541
                ],
                [
                    0.0218,
                    -0.15173,
                    1.11441
                ]
            ],
            [
                [
                    1.32556,
                    -0.09424,
                    -0.07427
                ],
                [
                    -0.04565,
                    1.01963,
                    -0.10539
                ],
                [
                    0.02173,
                    -0.15174,
                    1.11449
                ]
            ],
            [
                [
                    0.88477,
                    -0.00709,
                    -0.03252
                ],
                [
                    0.07957,
                    1.20143,
                    0.01234
                ],
                [
                    -0.11827,
                    0.10221,
                    1.15267
                ]
            ],
            [
                [
                    1.32556,
                    0.09424,
                    -0.07427
                ],
                [
                    0.04564,
                    1.01967,
                    0.10541
                ],
                [
                    0.02173,
                    0.15174,
                    1.11449
                ]
            ],
            [
                [
                    0.88481,
                    0.00706,
                    -0.03248
                ],
                [
                    -0.07957,
                    1.20143,
                    -0.01234
                ],
                [
                    -0.11814,
                    -0.10213,
                    1.15271
                ]
            ],
            [
                [
                    1.0798,
                    0.00336,
                    -0.02489
                ],
                [
                    0.17055,
                    1.07962,
                    -0.01211
                ],
                [
                    -0.01018,
                    0.05771,
                    1.04318
                ]
            ],
            [
                [
                    1.0798,
                    0.00332,
                    -0.02492
                ],
                [
                    0.17073,
                    1.07955,
                    -0.01215
                ],
                [
                    -0.01015,
                    0.05776,
                    1.04319
                ]
            ],
            [
                [
                    1.0798,
                    -0.00332,
                    -0.02492
                ],
                [
                    -0.17055,
                    1.07962,
                    0.01211
                ],
                [
                    -0.01015,
                    -0.05776,
                    1.04319
                ]
            ],
            [
                [
                    1.0798,
                    -0.00336,
                    -0.02489
                ],
                [
                    -0.17073,
                    1.07955,
                    0.01215
                ],
                [
                    -0.01018,
                    -0.05771,
                    1.04318
                ]
            ],
            [
                [
                    2.10221,
                    0.57742,
                    0.44091
                ],
                [
                    0.438,
                    2.42787,
                    -0.09961
                ],
                [
                    0.43955,
                    -0.03801,
                    2.55485
                ]
            ],
            [
                [
                    2.10221,
                    -0.57742,
                    0.44091
                ],
                [
                    -0.43785,
                    2.42779,
                    0.09911
                ],
                [
                    0.43955,
                    0.03801,
                    2.55485
                ]
            ],
            [
                [
                    2.10208,
                    -0.57739,
                    0.44093
                ],
                [
                    -0.438,
                    2.42787,
                    0.09961
                ],
                [
                    0.43947,
                    0.03809,
                    2.55468
                ]
            ],
            [
                [
                    2.10208,
                    0.57739,
                    0.44093
                ],
                [
                    0.43785,
                    2.42779,
                    -0.09911
                ],
                [
                    0.43947,
                    -0.03809,
                    2.55468
                ]
            ],
            [
                [
                    -1.53939,
                    0.01947,
                    -0.24809
                ],
                [
                    -0.01679,
                    -1.61514,
                    0.10493
                ],
                [
                    -0.19026,
                    0.35004,
                    -2.45766
                ]
            ],
            [
                [
                    -1.74357,
                    -0.45264,
                    0.14283
                ],
                [
                    -0.45213,
                    -2.31752,
                    0.2761
                ],
                [
                    -0.03293,
                    0.03109,
                    -1.60691
                ]
            ],
            [
                [
                    -1.74357,
                    0.45264,
                    0.14283
                ],
                [
                    0.45206,
                    -2.31773,
                    -0.27636
                ],
                [
                    -0.03293,
                    -0.03109,
                    -1.60691
                ]
            ],
            [
                [
                    -1.74336,
                    0.4526,
                    0.14298
                ],
                [
                    0.45213,
                    -2.31752,
                    -0.2761
                ],
                [
                    -0.03274,
                    -0.03117,
                    -1.60696
                ]
            ],
            [
                [
                    -2.10953,
                    0.16151,
                    -0.2043
                ],
                [
                    0.02213,
                    -1.79577,
                    0.32912
                ],
                [
                    -0.10993,
                    0.37084,
                    -1.80065
                ]
            ],
            [
                [
                    -2.10957,
                    0.1615,
                    -0.20399
                ],
                [
                    0.02164,
                    -1.79576,
                    0.32902
                ],
                [
                    -0.10983,
                    0.37094,
                    -1.80071
                ]
            ],
            [
                [
                    -2.10957,
                    -0.1615,
                    -0.20399
                ],
                [
                    -0.02213,
                    -1.79577,
                    -0.32912
                ],
                [
                    -0.10983,
                    -0.37094,
                    -1.80071
                ]
            ],
            [
                [
                    -1.53939,
                    -0.01947,
                    -0.24809
                ],
                [
                    0.01713,
                    -1.61506,
                    -0.10426
                ],
                [
                    -0.19026,
                    -0.35004,
                    -2.45766
                ]
            ],
            [
                [
                    -1.53924,
                    0.01954,
                    -0.24794
                ],
                [
                    -0.01713,
                    -1.61506,
                    0.10426
                ],
                [
                    -0.19012,
                    0.35003,
                    -2.4573
                ]
            ],
            [
                [
                    -1.53924,
                    -0.01954,
                    -0.24794
                ],
                [
                    0.01679,
                    -1.61514,
                    -0.10493
                ],
                [
                    -0.19012,
                    -0.35003,
                    -2.4573
                ]
            ],
            [
                [
                    -1.74336,
                    -0.4526,
                    0.14298
                ],
                [
                    -0.45206,
                    -2.31773,
                    0.27636
                ],
                [
                    -0.03274,
                    0.03117,
                    -1.60696
                ]
            ],
            [
                [
                    -2.10953,
                    -0.16151,
                    -0.2043
                ],
                [
                    -0.02164,
                    -1.79576,
                    -0.32902
                ],
                [
                    -0.10993,
                    -0.37084,
                    -1.80065
                ]
            ]
        ]
    },
    "band_gap": 1.3013000000000001,
    "is_direct": false,
    "formula": "K2NaTlO3"
}