{
    "mp_id": "mp-553895",
    "nelements": 4,
    "nsites": 31,
    "elements": [
        "Bi",
        "O",
        "Sr",
        "V"
    ],
    "structure": {
        "@module": "pymatgen.core.structure",
        "@class": "Structure",
        "charge": null,
        "lattice": {
            "matrix": [
                [
                    7.11843122,
                    0.00055214,
                    -0.00173952
                ],
                [
                    -2.97649891,
                    7.37585835,
                    0.00092719
                ],
                [
                    -0.77939387,
                    -3.0846258,
                    8.65985439
                ]
            ],
            "a": 7.118431453955225,
            "b": 7.953793624439673,
            "c": 9.22580344396202,
            "alpha": 106.1605389911082,
            "beta": 94.86079176717313,
            "gamma": 111.97190427265633,
            "volume": 454.69029363477955
        },
        "sites": [
            {
                "species": [
                    {
                        "element": "Sr",
                        "occu": 1
                    }
                ],
                "abc": [
                    0.0,
                    0.5,
                    0.0
                ],
                "xyz": [
                    -1.488249455,
                    3.687929175,
                    0.000463595
                ],
                "label": "Sr",
                "properties": {}
            },
            {
                "species": [
                    {
                        "element": "V",
                        "occu": 1
                    }
                ],
                "abc": [
                    0.0531396,
                    0.77555972,
                    0.75556583
                ],
                "xyz": [
                    -2.5190654498450553,
                    3.3898101243679917,
                    6.543716723679289
                ],
                "label": "V",
                "properties": {}
            },
            {
                "species": [
                    {
                        "element": "V",
                        "occu": 1
                    }
                ],
                "abc": [
                    0.65281677,
                    0.10278545,
                    0.7387742
                ],
                "xyz": [
                    3.765294413824545,
                    -1.5203505918019649,
                    6.396636712902373
                ],
                "label": "V",
                "properties": {}
            },
            {
                "species": [
                    {
                        "element": "V",
                        "occu": 1
                    }
                ],
                "abc": [
                    0.9468604,
                    0.22444028,
                    0.24443417
                ],
                "xyz": [
                    5.8816038898450556,
                    0.901974565632008,
                    2.1153253363207116
                ],
                "label": "V",
                "properties": {}
            },
            {
                "species": [
                    {
                        "element": "V",
                        "occu": 1
                    }
                ],
                "abc": [
                    0.34718323,
                    0.89721455,
                    0.2612258
                ],
                "xyz": [
                    -0.4027559738245462,
                    5.8121352818019645,
                    2.262405347097627
                ],
                "label": "V",
                "properties": {}
            },
            {
                "species": [
                    {
                        "element": "Bi",
                        "occu": 1
                    }
                ],
                "abc": [
                    0.65880385,
                    0.37228704,
                    0.48863295
                ],
                "xyz": [
                    3.2007003990190532,
                    1.2390504202384125,
                    4.230689375503616
                ],
                "label": "Bi",
                "properties": {}
            },
            {
                "species": [
                    {
                        "element": "Bi",
                        "occu": 1
                    }
                ],
                "abc": [
                    0.43468444,
                    0.29998116,
                    0.08565871
                ],
                "xyz": [
                    2.1346158192975735,
                    1.9486334836346697,
                    0.7413139530899084
                ],
                "label": "Bi",
                "properties": {}
            },
            {
                "species": [
                    {
                        "element": "Bi",
                        "occu": 1
                    }
                ],
                "abc": [
                    0.34119615,
                    0.62771296,
                    0.51136705
                ],
                "xyz": [
                    0.16183804098094584,
                    3.052734269761587,
                    4.428352684496384
                ],
                "label": "Bi",
                "properties": {}
            },
            {
                "species": [
                    {
                        "element": "Bi",
                        "occu": 1
                    }
                ],
                "abc": [
                    0.19420386,
                    0.2142596,
                    0.66929278
                ],
                "xyz": [
                    0.22304066424421465,
                    -0.484062089494804,
                    5.795838856938281
                ],
                "label": "Bi",
                "properties": {}
            },
            {
                "species": [
                    {
                        "element": "Bi",
                        "occu": 1
                    }
                ],
                "abc": [
                    0.80579614,
                    0.7857404,
                    0.33070722
                ],
                "xyz": [
                    3.1394977757557854,
                    4.775846779494803,
                    2.863203203061719
                ],
                "label": "Bi",
                "properties": {}
            },
            {
                "species": [
                    {
                        "element": "Bi",
                        "occu": 1
                    }
                ],
                "abc": [
                    0.56531556,
                    0.70001884,
                    0.91434129
                ],
                "xyz": [
                    1.2279226207024267,
                    2.34315120636533,
                    7.917728106910091
                ],
                "label": "Bi",
                "properties": {}
            },
            {
                "species": [
                    {
                        "element": "O",
                        "occu": 1
                    }
                ],
                "abc": [
                    0.8376874,
                    0.97550124,
                    0.16902981
                ],
                "xyz": [
                    2.927700965435714,
                    6.674227774315291,
                    1.4632208431780334
                ],
                "label": "O",
                "properties": {}
            },
            {
                "species": [
                    {
                        "element": "O",
                        "occu": 1
                    }
                ],
                "abc": [
                    0.53687851,
                    0.87601226,
                    0.37500949
                ],
                "xyz": [
                    0.9220031121966186,
                    5.30487482662504,
                    3.247405897169795
                ],
                "label": "O",
                "properties": {}
            },
            {
                "species": [
                    {
                        "element": "O",
                        "occu": 1
                    }
                ],
                "abc": [
                    0.76108331,
                    0.31686672,
                    0.24461246
                ],
                "xyz": [
                    4.283916296380042,
                    1.583046361970427,
                    2.1172781615944047
                ],
                "label": "O",
                "properties": {}
            },
            {
                "species": [
                    {
                        "element": "O",
                        "occu": 1
                    }
                ],
                "abc": [
                    0.37328051,
                    0.13431208,
                    0.31125133
                ],
                "xyz": [
                    2.014804497850342,
                    0.030779097072345385,
                    2.6948664003985385
                ],
                "label": "O",
                "properties": {}
            },
            {
                "species": [
                    {
                        "element": "O",
                        "occu": 1
                    }
                ],
                "abc": [
                    0.9408391,
                    0.69864271,
                    0.56214385
                ],
                "xyz": [
                    4.179657686894055,
                    3.4196057180994726,
                    4.867095053337054
                ],
                "label": "O",
                "properties": {}
            },
            {
                "species": [
                    {
                        "element": "O",
                        "occu": 1
                    }
                ],
                "abc": [
                    0.0591609,
                    0.30135729,
                    0.43785615
                ],
                "xyz": [
                    -0.8171192468940565,
                    0.8721789719005271,
                    3.7919470066629453
                ],
                "label": "O",
                "properties": {}
            },
            {
                "species": [
                    {
                        "element": "O",
                        "occu": 1
                    }
                ],
                "abc": [
                    0.35204124,
                    0.8044149,
                    0.07176241
                ],
                "xyz": [
                    0.055710098055326694,
                    5.712084551723491,
                    0.621585483948806
                ],
                "label": "O",
                "properties": {}
            },
            {
                "species": [
                    {
                        "element": "O",
                        "occu": 1
                    }
                ],
                "abc": [
                    0.64795876,
                    0.1955851,
                    0.92823759
                ],
                "xyz": [
                    3.306828341944672,
                    -1.4202998617234903,
                    8.037456576051193
                ],
                "label": "O",
                "properties": {}
            },
            {
                "species": [
                    {
                        "element": "O",
                        "occu": 1
                    }
                ],
                "abc": [
                    0.89004266,
                    0.25708685,
                    0.72183052
                ],
                "xyz": [
                    5.007898446808599,
                    -0.3298494278174262,
                    6.249637318806511
                ],
                "label": "O",
                "properties": {}
            },
            {
                "species": [
                    {
                        "element": "O",
                        "occu": 1
                    }
                ],
                "abc": [
                    0.5469016,
                    0.52689997,
                    0.36314668
                ],
                "xyz": [
                    2.0417299410210674,
                    2.766469891276329,
                    3.1443345611238773
                ],
                "label": "O",
                "properties": {}
            },
            {
                "species": [
                    {
                        "element": "O",
                        "occu": 1
                    }
                ],
                "abc": [
                    0.10995734,
                    0.74291315,
                    0.27816948
                ],
                "xyz": [
                    -1.6453600068085996,
                    4.621634117817425,
                    2.4094047411934887
                ],
                "label": "O",
                "properties": {}
            },
            {
                "species": [
                    {
                        "element": "O",
                        "occu": 1
                    }
                ],
                "abc": [
                    0.4530984,
                    0.47310003,
                    0.63685332
                ],
                "xyz": [
                    1.3208084989789322,
                    1.5253147987236708,
                    5.514707498876121
                ],
                "label": "O",
                "properties": {}
            },
            {
                "species": [
                    {
                        "element": "O",
                        "occu": 1
                    }
                ],
                "abc": [
                    0.23891669,
                    0.68313328,
                    0.75538754
                ],
                "xyz": [
                    -0.9213778563800428,
                    2.7087383280295723,
                    6.541763898405595
                ],
                "label": "O",
                "properties": {}
            },
            {
                "species": [
                    {
                        "element": "O",
                        "occu": 1
                    }
                ],
                "abc": [
                    0.67519439,
                    0.58592062,
                    0.1000325
                ],
                "xyz": [
                    2.9843680212675565,
                    4.013477468956172,
                    0.8656356298620399
                ],
                "label": "O",
                "properties": {}
            },
            {
                "species": [
                    {
                        "element": "O",
                        "occu": 1
                    }
                ],
                "abc": [
                    0.46312149,
                    0.12398774,
                    0.62499051
                ],
                "xyz": [
                    2.440535327803381,
                    -1.0130901366250407,
                    5.411636162830205
                ],
                "label": "O",
                "properties": {}
            },
            {
                "species": [
                    {
                        "element": "O",
                        "occu": 1
                    }
                ],
                "abc": [
                    0.32480561,
                    0.41407938,
                    0.8999675
                ],
                "xyz": [
                    0.37817041873244317,
                    0.27830722104382843,
                    7.79340643013796
                ],
                "label": "O",
                "properties": {}
            },
            {
                "species": [
                    {
                        "element": "O",
                        "occu": 1
                    }
                ],
                "abc": [
                    0.86984505,
                    0.66599244,
                    0.85019778
                ],
                "xyz": [
                    3.5469674507346114,
                    2.290204168566057,
                    7.361693366170321
                ],
                "label": "O",
                "properties": {}
            },
            {
                "species": [
                    {
                        "element": "O",
                        "occu": 1
                    }
                ],
                "abc": [
                    0.62671949,
                    0.86568792,
                    0.68874867
                ],
                "xyz": [
                    1.3477339421496577,
                    4.2610055929276545,
                    5.964175659601461
                ],
                "label": "O",
                "properties": {}
            },
            {
                "species": [
                    {
                        "element": "O",
                        "occu": 1
                    }
                ],
                "abc": [
                    0.1623126,
                    0.02449876,
                    0.83097019
                ],
                "xyz": [
                    0.434837474564285,
                    -2.382443084315292,
                    7.195821216821967
                ],
                "label": "O",
                "properties": {}
            },
            {
                "species": [
                    {
                        "element": "O",
                        "occu": 1
                    }
                ],
                "abc": [
                    0.13015495,
                    0.33400756,
                    0.14980222
                ],
                "xyz": [
                    -0.18442901073461213,
                    2.001580521433943,
                    1.2973486938296783
                ],
                "label": "O",
                "properties": {}
            }
        ]
    },
    "spacegroup": {
        "source": "spglib",
        "symbol": "P-1",
        "number": 2,
        "point_group": "-1",
        "crystal_system": "triclinic",
        "hall": "-P 1"
    },
    "dielectric": {
        "epsilon_ionic": [
            [
                25.39321548,
                4.42674803,
                -1.95340353
            ],
            [
                4.42674803,
                19.26113026,
                -2.28738955
            ],
            [
                -1.95340353,
                -2.28738955,
                37.33664457
            ]
        ],
        "epsilon_ionic_avg": 27.330330103333335,
        "epsilon_ionic_eig": [
            16.878781489883703,
            26.969222694664353,
            38.14298612545195
        ],
        "epsilon_electronic": [
            [
                5.597132,
                0.15305517,
                -0.11709059
            ],
            [
                0.15305852,
                5.53730234,
                0.0959554
            ],
            [
                -0.1170915,
                0.09595718,
                5.48140635
            ]
        ],
        "epsilon_electronic_avg": 5.538613563333333,
        "epsilon_electronic_eig": [
            5.292967798577913,
            5.728049769435008,
            5.594823121987076
        ]
    },
    "phonon": {
        "lowest_freq": -0.05457390901805442,
        "frequency": [
            -0.05457390901805442,
            -0.03397676313281733,
            -0.03323333645277107,
            1.3044475068509902,
            1.6943346166450148,
            1.7406508151703677,
            1.8612119478616769,
            1.9692396201722557,
            2.088341392188094,
            2.151279738679573,
            2.179344309641859,
            2.364083631989046,
            2.4458375972769026,
            2.616376709421891,
            2.6892354071135656,
            2.8131387278630133,
            3.00239290632728,
            3.16285628402978,
            3.190218597065761,
            3.39894215192641,
            3.5444858557829066,
            3.628114717822445,
            3.659295584856301,
            3.697450093051707,
            3.742934152900465,
            3.843850234509168,
            3.9894594519660322,
            4.155932895604679,
            4.242008311363414,
            4.330043421689394,
            4.6799136396300165,
            4.844909328517877,
            4.938454240594781,
            5.1321088477185315,
            5.2676873544122955,
            5.394577792354283,
            5.536682123029361,
            5.596717858325349,
            5.696109936585174,
            5.9999121213561075,
            6.036800650274986,
            6.978678433835728,
            7.032059501501847,
            7.175950442611474,
            7.432434182286385,
            7.473795945913982,
            8.31301396119487,
            8.32708732809675,
            8.478214052915774,
            8.907360045439587,
            8.99872996610492,
            9.226161023489004,
            9.278260584644396,
            9.311222205299313,
            9.47310882066089,
            9.820833982944665,
            9.982311443033534,
            10.004076047493442,
            10.017579124869018,
            10.189760280005379,
            10.49699576759364,
            10.53448688210687,
            10.794659967934807,
            10.887439286511539,
            11.341463923029423,
            11.373443049964786,
            11.60403603629216,
            11.671056135722413,
            12.12094581048069,
            12.15202450744171,
            12.715839884420703,
            13.224402504165925,
            13.91889226396076,
            14.61575007851608,
            15.026930510062774,
            15.097447419817703,
            17.187718481324517,
            22.2472785461218,
            22.30969750768235,
            22.435306546481097,
            22.561412359732476,
            22.58805786217142,
            22.93595307654063,
            23.11759445676765,
            23.28171537860775,
            23.446590296190365,
            23.68797466259085,
            23.90095549733952,
            24.109781538975135,
            24.492064442837194,
            24.572036679405464,
            25.250575418970584,
            25.52188195937765
        ]
    },
    "born_effective_charge": {
        "avg_abs_trace": 3.106149139784946,
        "tensors": [
            [
                [
                    2.33421,
                    0.26969,
                    0.31222
                ],
                [
                    -0.20755,
                    2.89435,
                    0.07431
                ],
                [
                    0.41181,
                    0.01754,
                    2.85442
                ]
            ],
            [
                [
                    4.40562,
                    0.34414,
                    0.09205
                ],
                [
                    -0.0209,
                    4.22802,
                    0.98258
                ],
                [
                    -0.33975,
                    0.08314,
                    3.58954
                ]
            ],
            [
                [
                    3.49052,
                    0.85081,
                    0.24372
                ],
                [
                    -0.84106,
                    4.23635,
                    0.23646
                ],
                [
                    -0.04215,
                    0.48618,
                    3.90258
                ]
            ],
            [
                [
                    4.40589,
                    0.34393,
                    0.09227
                ],
                [
                    -0.02096,
                    4.22797,
                    0.98255
                ],
                [
                    -0.33924,
                    0.0833,
                    3.58977
                ]
            ],
            [
                [
                    3.49064,
                    0.8509,
                    0.2437
                ],
                [
                    -0.84101,
                    4.23628,
                    0.23654
                ],
                [
                    -0.0419,
                    0.48625,
                    3.9025
                ]
            ],
            [
                [
                    4.357,
                    0.17376,
                    -1.00632
                ],
                [
                    0.39015,
                    5.0035,
                    0.41533
                ],
                [
                    -0.20984,
                    0.28731,
                    4.67563
                ]
            ],
            [
                [
                    5.34659,
                    -0.21051,
                    0.13349
                ],
                [
                    0.48667,
                    4.51415,
                    -0.3719
                ],
                [
                    -0.58835,
                    -0.02745,
                    5.94147
                ]
            ],
            [
                [
                    4.357,
                    0.17369,
                    -1.00637
                ],
                [
                    0.38995,
                    5.00345,
                    0.41539
                ],
                [
                    -0.20977,
                    0.28745,
                    4.67565
                ]
            ],
            [
                [
                    5.71833,
                    -0.07605,
                    -0.07174
                ],
                [
                    0.37765,
                    4.7773,
                    -0.82631
                ],
                [
                    0.1669,
                    -0.70864,
                    3.98978
                ]
            ],
            [
                [
                    5.71819,
                    -0.07594,
                    -0.07181
                ],
                [
                    0.37771,
                    4.77744,
                    -0.82629
                ],
                [
                    0.16673,
                    -0.70874,
                    3.98975
                ]
            ],
            [
                [
                    5.34653,
                    -0.21041,
                    0.13358
                ],
                [
                    0.48673,
                    4.51391,
                    -0.37185
                ],
                [
                    -0.58853,
                    -0.02717,
                    5.94161
                ]
            ],
            [
                [
                    -0.72917,
                    -0.17044,
                    -0.35633
                ],
                [
                    0.01797,
                    -4.56322,
                    -0.81788
                ],
                [
                    -0.27647,
                    -0.80016,
                    -1.80266
                ]
            ],
            [
                [
                    -3.6194,
                    0.79668,
                    -0.77187
                ],
                [
                    0.91818,
                    -1.62193,
                    0.91027
                ],
                [
                    -0.95142,
                    0.75066,
                    -1.54744
                ]
            ],
            [
                [
                    -4.40877,
                    1.09839,
                    0.44131
                ],
                [
                    1.06889,
                    -1.24291,
                    0.11345
                ],
                [
                    0.21363,
                    0.13481,
                    -1.87851
                ]
            ],
            [
                [
                    -0.98679,
                    0.18269,
                    -0.2456
                ],
                [
                    0.37003,
                    -4.22825,
                    -1.06215
                ],
                [
                    -0.12004,
                    -0.91713,
                    -1.93587
                ]
            ],
            [
                [
                    -1.41058,
                    -0.26095,
                    -1.19828
                ],
                [
                    -0.26408,
                    -1.73769,
                    -0.43593
                ],
                [
                    -1.13859,
                    -0.15915,
                    -3.54139
                ]
            ],
            [
                [
                    -1.41061,
                    -0.26074,
                    -1.19849
                ],
                [
                    -0.26417,
                    -1.73772,
                    -0.4354
                ],
                [
                    -1.13871,
                    -0.15921,
                    -3.54194
                ]
            ],
            [
                [
                    -1.68142,
                    -0.03881,
                    1.16292
                ],
                [
                    0.06964,
                    -0.83179,
                    -0.37117
                ],
                [
                    1.38181,
                    -0.48377,
                    -3.79819
                ]
            ],
            [
                [
                    -1.68137,
                    -0.03889,
                    1.16267
                ],
                [
                    0.06962,
                    -0.83197,
                    -0.37081
                ],
                [
                    1.38192,
                    -0.48377,
                    -3.7984
                ]
            ],
            [
                [
                    -3.98783,
                    -1.54139,
                    0.29244
                ],
                [
                    -1.11153,
                    -1.77301,
                    -0.02012
                ],
                [
                    0.24598,
                    0.15057,
                    -1.08978
                ]
            ],
            [
                [
                    -2.70817,
                    0.22162,
                    0.54914
                ],
                [
                    0.01711,
                    -3.13628,
                    0.36707
                ],
                [
                    0.69023,
                    0.28277,
                    -2.92379
                ]
            ],
            [
                [
                    -3.98776,
                    -1.54137,
                    0.29253
                ],
                [
                    -1.11138,
                    -1.7727,
                    -0.0201
                ],
                [
                    0.24546,
                    0.15003,
                    -1.08957
                ]
            ],
            [
                [
                    -2.708,
                    0.22173,
                    0.54928
                ],
                [
                    0.01704,
                    -3.13616,
                    0.36706
                ],
                [
                    0.69022,
                    0.28242,
                    -2.92386
                ]
            ],
            [
                [
                    -4.40845,
                    1.09831,
                    0.44138
                ],
                [
                    1.06819,
                    -1.24253,
                    0.11326
                ],
                [
                    0.21416,
                    0.1346,
                    -1.87821
                ]
            ],
            [
                [
                    -1.55381,
                    -0.20605,
                    -0.60625
                ],
                [
                    -0.37967,
                    -3.17349,
                    -0.12866
                ],
                [
                    -0.54932,
                    -0.15336,
                    -3.22629
                ]
            ],
            [
                [
                    -3.6195,
                    0.79674,
                    -0.772
                ],
                [
                    0.91843,
                    -1.62209,
                    0.91039
                ],
                [
                    -0.95146,
                    0.75066,
                    -1.54698
                ]
            ],
            [
                [
                    -1.55377,
                    -0.20605,
                    -0.60636
                ],
                [
                    -0.37966,
                    -3.17365,
                    -0.12871
                ],
                [
                    -0.54934,
                    -0.15365,
                    -3.22564
                ]
            ],
            [
                [
                    -3.39972,
                    -1.29887,
                    1.18537
                ],
                [
                    -0.99498,
                    -1.8981,
                    0.9711
                ],
                [
                    1.31132,
                    1.06586,
                    -1.78278
                ]
            ],
            [
                [
                    -0.98679,
                    0.18278,
                    -0.24538
                ],
                [
                    0.36999,
                    -4.22811,
                    -1.06205
                ],
                [
                    -0.11987,
                    -0.91757,
                    -1.93598
                ]
            ],
            [
                [
                    -0.72907,
                    -0.17057,
                    -0.35655
                ],
                [
                    0.01798,
                    -4.56299,
                    -0.81764
                ],
                [
                    -0.27647,
                    -0.79955,
                    -1.80255
                ]
            ],
            [
                [
                    -3.39953,
                    -1.29881,
                    1.18529
                ],
                [
                    -0.99497,
                    -1.89813,
                    0.97119
                ],
                [
                    1.31105,
                    1.06576,
                    -1.78287
                ]
            ]
        ]
    },
    "band_gap": 2.7558999999999996,
    "is_direct": false,
    "formula": "SrV4(Bi3O10)2"
}