{
    "mp_id": "mp-559067",
    "nelements": 4,
    "nsites": 12,
    "elements": [
        "Au",
        "K",
        "Na",
        "O"
    ],
    "structure": {
        "@module": "pymatgen.core.structure",
        "@class": "Structure",
        "charge": null,
        "lattice": {
            "matrix": [
                [
                    5.45188647,
                    0.0,
                    0.0
                ],
                [
                    0.0,
                    9.99383005,
                    0.0
                ],
                [
                    0.0,
                    0.0,
                    3.90613733
                ]
            ],
            "a": 5.45188647,
            "b": 9.99383005,
            "c": 3.90613733,
            "alpha": 90.0,
            "beta": 90.0,
            "gamma": 90.0,
            "volume": 212.82677846618967
        },
        "sites": [
            {
                "species": [
                    {
                        "element": "K",
                        "occu": 1
                    }
                ],
                "abc": [
                    0.0,
                    0.5,
                    0.0
                ],
                "xyz": [
                    0.0,
                    4.996915025,
                    0.0
                ],
                "label": "K",
                "properties": {}
            },
            {
                "species": [
                    {
                        "element": "K",
                        "occu": 1
                    }
                ],
                "abc": [
                    0.5,
                    0.0,
                    0.5
                ],
                "xyz": [
                    2.725943235,
                    0.0,
                    1.953068665
                ],
                "label": "K",
                "properties": {}
            },
            {
                "species": [
                    {
                        "element": "Na",
                        "occu": 1
                    }
                ],
                "abc": [
                    0.91832089,
                    0.22866214,
                    0.5
                ],
                "xyz": [
                    5.0065812353093575,
                    2.285210566029307,
                    1.953068665
                ],
                "label": "Na",
                "properties": {}
            },
            {
                "species": [
                    {
                        "element": "Na",
                        "occu": 1
                    }
                ],
                "abc": [
                    0.08167911,
                    0.77133786,
                    0.5
                ],
                "xyz": [
                    0.4453052346906417,
                    7.708619483970693,
                    1.953068665
                ],
                "label": "Na",
                "properties": {}
            },
            {
                "species": [
                    {
                        "element": "Na",
                        "occu": 1
                    }
                ],
                "abc": [
                    0.41832089,
                    0.27133786,
                    0.0
                ],
                "xyz": [
                    2.280638000309358,
                    2.7117044589706927,
                    0.0
                ],
                "label": "Na",
                "properties": {}
            },
            {
                "species": [
                    {
                        "element": "Na",
                        "occu": 1
                    }
                ],
                "abc": [
                    0.58167911,
                    0.72866214,
                    0.0
                ],
                "xyz": [
                    3.171248469690642,
                    7.282125591029306,
                    0.0
                ],
                "label": "Na",
                "properties": {}
            },
            {
                "species": [
                    {
                        "element": "Au",
                        "occu": 1
                    }
                ],
                "abc": [
                    0.0,
                    0.0,
                    0.0
                ],
                "xyz": [
                    0.0,
                    0.0,
                    0.0
                ],
                "label": "Au",
                "properties": {}
            },
            {
                "species": [
                    {
                        "element": "Au",
                        "occu": 1
                    }
                ],
                "abc": [
                    0.5,
                    0.5,
                    0.5
                ],
                "xyz": [
                    2.725943235,
                    4.996915025,
                    1.953068665
                ],
                "label": "Au",
                "properties": {}
            },
            {
                "species": [
                    {
                        "element": "O",
                        "occu": 1
                    }
                ],
                "abc": [
                    0.74247694,
                    0.64972097,
                    0.5
                ],
                "xyz": [
                    4.047899983473002,
                    6.493200954101148,
                    1.953068665
                ],
                "label": "O",
                "properties": {}
            },
            {
                "species": [
                    {
                        "element": "O",
                        "occu": 1
                    }
                ],
                "abc": [
                    0.24247694,
                    0.85027903,
                    0.0
                ],
                "xyz": [
                    1.3219567484730017,
                    8.497544120898851,
                    0.0
                ],
                "label": "O",
                "properties": {}
            },
            {
                "species": [
                    {
                        "element": "O",
                        "occu": 1
                    }
                ],
                "abc": [
                    0.75752306,
                    0.14972097,
                    0.0
                ],
                "xyz": [
                    4.129929721526998,
                    1.4962859291011485,
                    0.0
                ],
                "label": "O",
                "properties": {}
            },
            {
                "species": [
                    {
                        "element": "O",
                        "occu": 1
                    }
                ],
                "abc": [
                    0.25752306,
                    0.35027903,
                    0.5
                ],
                "xyz": [
                    1.4039864865269982,
                    3.5006290958988515,
                    1.953068665
                ],
                "label": "O",
                "properties": {}
            }
        ]
    },
    "spacegroup": {
        "source": "spglib",
        "symbol": "Pnnm",
        "number": 58,
        "point_group": "mmm",
        "crystal_system": "orthorhombic",
        "hall": "-P 2 2n"
    },
    "dielectric": {
        "epsilon_ionic": [
            [
                4.98446633,
                0.0,
                0.0
            ],
            [
                0.0,
                7.81002163,
                -0.0
            ],
            [
                0.0,
                -0.0,
                2.29837985
            ]
        ],
        "epsilon_ionic_avg": 5.0309559366666665,
        "epsilon_ionic_eig": [
            4.98446633,
            7.81002163,
            2.29837985
        ],
        "epsilon_electronic": [
            [
                3.46140737,
                -0.0,
                0.0
            ],
            [
                0.0,
                3.64921148,
                0.0
            ],
            [
                0.0,
                0.0,
                3.34149619
            ]
        ],
        "epsilon_electronic_avg": 3.4840383466666665,
        "epsilon_electronic_eig": [
            3.46140737,
            3.64921148,
            3.34149619
        ]
    },
    "phonon": {
        "lowest_freq": -0.08388500486914695,
        "frequency": [
            -0.08388500486914695,
            -0.024113888131937516,
            -0.020784685548943284,
            1.6206529273033905,
            1.7789676261789846,
            1.9084542740835084,
            2.421979896275586,
            3.0937153388844916,
            3.099585369006405,
            3.1597400046446276,
            3.4803237419918727,
            3.55285796092066,
            4.111947367723903,
            4.230311656668766,
            4.432642586093056,
            4.680640707849171,
            4.724901677511841,
            4.979896124334093,
            5.013733566335426,
            5.104028973455101,
            5.5081943303297525,
            5.878902957272478,
            6.55765102729832,
            7.481245512551294,
            8.111459513088848,
            8.787333580684695,
            8.809597898525553,
            9.287681919005664,
            9.498660384578242,
            9.524450608396046,
            10.337770965008897,
            10.382512468005729,
            16.661301090595174,
            17.773505994092847,
            17.811883571717864,
            18.325628204669535
        ]
    },
    "born_effective_charge": {
        "avg_abs_trace": 1.0856722222222224,
        "tensors": [
            [
                [
                    1.3806,
                    -0.28401,
                    0.0
                ],
                [
                    0.00349,
                    0.89644,
                    0.0
                ],
                [
                    -0.0,
                    0.0,
                    1.21795
                ]
            ],
            [
                [
                    1.3806,
                    0.28401,
                    0.0
                ],
                [
                    -0.00349,
                    0.89644,
                    0.0
                ],
                [
                    -0.0,
                    0.0,
                    1.21795
                ]
            ],
            [
                [
                    0.94082,
                    -0.02337,
                    0.0
                ],
                [
                    0.05858,
                    1.20458,
                    0.0
                ],
                [
                    4e-05,
                    6e-05,
                    0.95766
                ]
            ],
            [
                [
                    0.94088,
                    -0.02335,
                    0.0
                ],
                [
                    0.05861,
                    1.2046,
                    0.0
                ],
                [
                    -4e-05,
                    -6e-05,
                    0.95766
                ]
            ],
            [
                [
                    0.94082,
                    0.02337,
                    0.0
                ],
                [
                    -0.05861,
                    1.2046,
                    0.0
                ],
                [
                    4e-05,
                    -6e-05,
                    0.95766
                ]
            ],
            [
                [
                    0.94088,
                    0.02335,
                    0.0
                ],
                [
                    -0.05858,
                    1.20458,
                    0.0
                ],
                [
                    -4e-05,
                    6e-05,
                    0.95766
                ]
            ],
            [
                [
                    0.34219,
                    -1.49048,
                    0.0
                ],
                [
                    -1.59772,
                    0.71525,
                    0.0
                ],
                [
                    -0.0,
                    0.0,
                    -0.98758
                ]
            ],
            [
                [
                    0.34219,
                    1.49048,
                    0.0
                ],
                [
                    1.59772,
                    0.71525,
                    0.0
                ],
                [
                    -0.0,
                    0.0,
                    -0.98758
                ]
            ],
            [
                [
                    -1.80219,
                    -0.63292,
                    0.0
                ],
                [
                    -0.83044,
                    -2.01043,
                    0.0
                ],
                [
                    0.00013,
                    0.00011,
                    -1.07285
                ]
            ],
            [
                [
                    -1.80219,
                    0.63292,
                    0.0
                ],
                [
                    0.83043,
                    -2.01044,
                    0.0
                ],
                [
                    0.00013,
                    -0.00011,
                    -1.07285
                ]
            ],
            [
                [
                    -1.80229,
                    0.633,
                    0.0
                ],
                [
                    0.83044,
                    -2.01043,
                    0.0
                ],
                [
                    -0.00013,
                    0.00011,
                    -1.07285
                ]
            ],
            [
                [
                    -1.80229,
                    -0.633,
                    0.0
                ],
                [
                    -0.83043,
                    -2.01044,
                    0.0
                ],
                [
                    -0.00013,
                    -0.00011,
                    -1.07285
                ]
            ]
        ]
    },
    "band_gap": 2.29,
    "is_direct": false,
    "formula": "KNa2AuO2"
}