{
    "mp_id": "mp-560157",
    "nelements": 4,
    "nsites": 14,
    "elements": [
        "Li",
        "Mg",
        "O",
        "V"
    ],
    "structure": {
        "@module": "pymatgen.core.structure",
        "@class": "Structure",
        "charge": null,
        "lattice": {
            "matrix": [
                [
                    2.81240868,
                    -4.30092913,
                    0.0
                ],
                [
                    2.81240868,
                    4.30092913,
                    0.0
                ],
                [
                    0.0,
                    0.0,
                    6.2314129
                ]
            ],
            "a": 5.138835856944829,
            "b": 5.138835856944829,
            "c": 6.2314129,
            "alpha": 90.0,
            "beta": 90.0,
            "gamma": 113.63807353534321,
            "volume": 150.74997219247467
        },
        "sites": [
            {
                "species": [
                    {
                        "element": "Li",
                        "occu": 1
                    }
                ],
                "abc": [
                    0.83776447,
                    0.16223553,
                    0.75
                ],
                "xyz": [
                    2.81240868,
                    -2.905402096204022,
                    4.673559675
                ],
                "label": "Li",
                "properties": {}
            },
            {
                "species": [
                    {
                        "element": "Li",
                        "occu": 1
                    }
                ],
                "abc": [
                    0.16223553,
                    0.83776447,
                    0.25
                ],
                "xyz": [
                    2.81240868,
                    2.905402096204022,
                    1.557853225
                ],
                "label": "Li",
                "properties": {}
            },
            {
                "species": [
                    {
                        "element": "Mg",
                        "occu": 1
                    }
                ],
                "abc": [
                    0.5,
                    0.5,
                    0.5
                ],
                "xyz": [
                    2.81240868,
                    0.0,
                    3.11570645
                ],
                "label": "Mg",
                "properties": {}
            },
            {
                "species": [
                    {
                        "element": "Mg",
                        "occu": 1
                    }
                ],
                "abc": [
                    0.5,
                    0.5,
                    0.0
                ],
                "xyz": [
                    2.81240868,
                    0.0,
                    0.0
                ],
                "label": "Mg",
                "properties": {}
            },
            {
                "species": [
                    {
                        "element": "V",
                        "occu": 1
                    }
                ],
                "abc": [
                    0.14569197,
                    0.85430803,
                    0.75
                ],
                "xyz": [
                    2.81240868,
                    3.047707454439828,
                    4.673559675
                ],
                "label": "V",
                "properties": {}
            },
            {
                "species": [
                    {
                        "element": "V",
                        "occu": 1
                    }
                ],
                "abc": [
                    0.85430803,
                    0.14569197,
                    0.25
                ],
                "xyz": [
                    2.81240868,
                    -3.047707454439828,
                    1.557853225
                ],
                "label": "V",
                "properties": {}
            },
            {
                "species": [
                    {
                        "element": "O",
                        "occu": 1
                    }
                ],
                "abc": [
                    0.26015352,
                    0.73984648,
                    0.97160306
                ],
                "xyz": [
                    2.81240868,
                    2.0631254251199245,
                    6.054459841763474
                ],
                "label": "O",
                "properties": {}
            },
            {
                "species": [
                    {
                        "element": "O",
                        "occu": 1
                    }
                ],
                "abc": [
                    0.73454829,
                    0.77278186,
                    0.25
                ],
                "xyz": [
                    4.239228397485702,
                    0.16443987495689472,
                    1.557853225
                ],
                "label": "O",
                "properties": {}
            },
            {
                "species": [
                    {
                        "element": "O",
                        "occu": 1
                    }
                ],
                "abc": [
                    0.26545171,
                    0.22721814,
                    0.75
                ],
                "xyz": [
                    1.3855889625142979,
                    -0.16443987495689405,
                    4.673559675
                ],
                "label": "O",
                "properties": {}
            },
            {
                "species": [
                    {
                        "element": "O",
                        "occu": 1
                    }
                ],
                "abc": [
                    0.73984648,
                    0.26015352,
                    0.47160306
                ],
                "xyz": [
                    2.81240868,
                    -2.0631254251199245,
                    2.938753391763474
                ],
                "label": "O",
                "properties": {}
            },
            {
                "species": [
                    {
                        "element": "O",
                        "occu": 1
                    }
                ],
                "abc": [
                    0.73984648,
                    0.26015352,
                    0.02839694
                ],
                "xyz": [
                    2.81240868,
                    -2.0631254251199245,
                    0.176953058236526
                ],
                "label": "O",
                "properties": {}
            },
            {
                "species": [
                    {
                        "element": "O",
                        "occu": 1
                    }
                ],
                "abc": [
                    0.77278186,
                    0.73454829,
                    0.75
                ],
                "xyz": [
                    4.239228397485702,
                    -0.16443987495689472,
                    4.673559675
                ],
                "label": "O",
                "properties": {}
            },
            {
                "species": [
                    {
                        "element": "O",
                        "occu": 1
                    }
                ],
                "abc": [
                    0.22721814,
                    0.26545171,
                    0.25
                ],
                "xyz": [
                    1.3855889625142979,
                    0.16443987495689405,
                    1.557853225
                ],
                "label": "O",
                "properties": {}
            },
            {
                "species": [
                    {
                        "element": "O",
                        "occu": 1
                    }
                ],
                "abc": [
                    0.26015352,
                    0.73984648,
                    0.52839694
                ],
                "xyz": [
                    2.81240868,
                    2.0631254251199245,
                    3.292659508236526
                ],
                "label": "O",
                "properties": {}
            }
        ]
    },
    "spacegroup": {
        "source": "spglib",
        "symbol": "Cmcm",
        "number": 63,
        "point_group": "mmm",
        "crystal_system": "orthorhombic",
        "hall": "-C 2c 2"
    },
    "dielectric": {
        "epsilon_ionic": [
            [
                8.46837422,
                -0.0,
                -6e-08
            ],
            [
                -0.0,
                4.7847882,
                4e-08
            ],
            [
                -6e-08,
                4e-08,
                3.65189917
            ]
        ],
        "epsilon_ionic_avg": 5.6350205299999985,
        "epsilon_ionic_eig": [
            8.46837422,
            3.6518991699999948,
            4.784788200000002
        ],
        "epsilon_electronic": [
            [
                3.61547486,
                0.0,
                0.0
            ],
            [
                0.0,
                3.69307764,
                0.0
            ],
            [
                0.0,
                0.0,
                3.59087657
            ]
        ],
        "epsilon_electronic_avg": 3.6331430233333335,
        "epsilon_electronic_eig": [
            3.61547486,
            3.69307764,
            3.59087657
        ]
    },
    "phonon": {
        "lowest_freq": -0.13257996292343172,
        "frequency": [
            -0.13257996292343172,
            -0.0466026981015612,
            -0.03312192022107955,
            3.125313296928694,
            4.540243656143074,
            5.449502237199413,
            5.765385412774111,
            5.821237480211444,
            6.032554097527824,
            6.123218970299977,
            6.7566874607053355,
            6.938357626955702,
            7.1453188984481,
            7.390822478718529,
            7.775621304602305,
            9.13142758307702,
            9.206342175093543,
            9.511376649063322,
            9.520738933032634,
            10.099996976187983,
            10.539910574703455,
            10.733455933612754,
            11.170327747998211,
            11.280406224911994,
            11.312606856593336,
            11.446959785713636,
            11.66182678712831,
            11.676242132017157,
            11.69372007436198,
            12.43271101265447,
            14.269337228580339,
            14.300594104440291,
            14.822965559695826,
            15.13687254147102,
            21.606598473898764,
            22.42797093795175,
            23.180172459960698,
            23.335582831993804,
            25.426285354753837,
            25.598100976978795,
            26.397874370210765,
            26.85548759322389
        ]
    },
    "born_effective_charge": {
        "avg_abs_trace": 1.9460585714285712,
        "tensors": [
            [
                [
                    0.85233,
                    1e-05,
                    -0.0
                ],
                [
                    -0.0,
                    1.10213,
                    0.0
                ],
                [
                    -0.0,
                    -0.0,
                    1.32034
                ]
            ],
            [
                [
                    0.85233,
                    -1e-05,
                    -0.0
                ],
                [
                    -0.0,
                    1.10214,
                    0.0
                ],
                [
                    -0.0,
                    0.0,
                    1.32034
                ]
            ],
            [
                [
                    2.85561,
                    0.0,
                    -0.0
                ],
                [
                    -0.0,
                    2.55207,
                    -0.81009
                ],
                [
                    0.0,
                    0.61789,
                    2.07182
                ]
            ],
            [
                [
                    2.85561,
                    0.0,
                    -0.0
                ],
                [
                    -0.0,
                    2.55207,
                    0.81009
                ],
                [
                    -0.0,
                    -0.61789,
                    2.07182
                ]
            ],
            [
                [
                    3.00178,
                    0.00032,
                    -0.0
                ],
                [
                    -0.0,
                    3.36028,
                    0.0
                ],
                [
                    -0.0,
                    7e-05,
                    3.31709
                ]
            ],
            [
                [
                    3.00178,
                    -0.00032,
                    -0.0
                ],
                [
                    -0.0,
                    3.36059,
                    0.0
                ],
                [
                    0.0,
                    -7e-05,
                    3.31709
                ]
            ],
            [
                [
                    -0.90076,
                    9e-05,
                    -0.00018
                ],
                [
                    -0.0,
                    -1.73227,
                    0.74088
                ],
                [
                    0.0,
                    1.0044,
                    -2.23251
                ]
            ],
            [
                [
                    -2.45437,
                    -0.91931,
                    -0.0
                ],
                [
                    -0.85573,
                    -1.77487,
                    0.0
                ],
                [
                    -1e-05,
                    0.00017,
                    -1.12191
                ]
            ],
            [
                [
                    -2.45383,
                    -0.9192,
                    -0.0
                ],
                [
                    -0.85527,
                    -1.77523,
                    0.0
                ],
                [
                    1e-05,
                    -0.00017,
                    -1.12191
                ]
            ],
            [
                [
                    -0.90076,
                    -9e-05,
                    -0.00018
                ],
                [
                    -0.0,
                    -1.73227,
                    -0.74104
                ],
                [
                    0.0,
                    -1.0044,
                    -2.23251
                ]
            ],
            [
                [
                    -0.90076,
                    -9e-05,
                    0.00018
                ],
                [
                    -0.0,
                    -1.73227,
                    0.74104
                ],
                [
                    0.0,
                    1.00468,
                    -2.23293
                ]
            ],
            [
                [
                    -2.45437,
                    0.91931,
                    -0.0
                ],
                [
                    0.85527,
                    -1.77523,
                    0.0
                ],
                [
                    -1e-05,
                    -0.00017,
                    -1.12191
                ]
            ],
            [
                [
                    -2.45383,
                    0.9192,
                    -0.0
                ],
                [
                    0.85573,
                    -1.77487,
                    0.0
                ],
                [
                    1e-05,
                    0.00017,
                    -1.12191
                ]
            ],
            [
                [
                    -0.90076,
                    9e-05,
                    0.00018
                ],
                [
                    -0.0,
                    -1.73227,
                    -0.74088
                ],
                [
                    0.0,
                    -1.00468,
                    -2.23293
                ]
            ]
        ]
    },
    "band_gap": 3.5221,
    "is_direct": false,
    "formula": "LiMgVO4"
}