{
    "mp_id": "mp-554817",
    "nelements": 4,
    "nsites": 30,
    "elements": [
        "Ba",
        "Ca",
        "O",
        "Sb"
    ],
    "structure": {
        "@module": "pymatgen.core.structure",
        "@class": "Structure",
        "charge": null,
        "lattice": {
            "matrix": [
                [
                    3.00587095,
                    -5.18508043,
                    0.00051973
                ],
                [
                    3.00587095,
                    5.18508043,
                    0.00051973
                ],
                [
                    -0.58497711,
                    0.0,
                    14.88587482
                ]
            ],
            "a": 5.99335628039433,
            "b": 5.99335628039433,
            "c": 14.897364443952291,
            "alpha": 91.12347926128035,
            "beta": 91.12347926128035,
            "gamma": 119.79693983136808,
            "volume": 464.01619430715414
        },
        "sites": [
            {
                "species": [
                    {
                        "element": "Ba",
                        "occu": 1
                    }
                ],
                "abc": [
                    0.00795298,
                    0.99204702,
                    0.25
                ],
                "xyz": [
                    2.8596266724999997,
                    5.102606748083637,
                    3.721988435
                ],
                "label": "Ba",
                "properties": {}
            },
            {
                "species": [
                    {
                        "element": "Ba",
                        "occu": 1
                    }
                ],
                "abc": [
                    0.32289872,
                    0.65712983,
                    0.90904834
                ],
                "xyz": [
                    2.4140668778321253,
                    1.7330151875581778,
                    13.532489144807089
                ],
                "label": "Ba",
                "properties": {}
            },
            {
                "species": [
                    {
                        "element": "Ba",
                        "occu": 1
                    }
                ],
                "abc": [
                    0.34287017,
                    0.67710128,
                    0.59095166
                ],
                "xyz": [
                    2.720209357167875,
                    1.7330151875581776,
                    8.79736254519291
                ],
                "label": "Ba",
                "properties": {}
            },
            {
                "species": [
                    {
                        "element": "Ba",
                        "occu": 1
                    }
                ],
                "abc": [
                    0.65712983,
                    0.32289872,
                    0.40904834
                ],
                "xyz": [
                    2.706555432832125,
                    -1.7330151875581778,
                    6.089551734807091
                ],
                "label": "Ba",
                "properties": {}
            },
            {
                "species": [
                    {
                        "element": "Ba",
                        "occu": 1
                    }
                ],
                "abc": [
                    0.67710128,
                    0.34287017,
                    0.09095166
                ],
                "xyz": [
                    3.012697912167875,
                    -1.7330151875581776,
                    1.3544251351929097
                ],
                "label": "Ba",
                "properties": {}
            },
            {
                "species": [
                    {
                        "element": "Ba",
                        "occu": 1
                    }
                ],
                "abc": [
                    0.99204702,
                    0.00795298,
                    0.75
                ],
                "xyz": [
                    2.5671381175,
                    -5.102606748083637,
                    11.164925845
                ],
                "label": "Ba",
                "properties": {}
            },
            {
                "species": [
                    {
                        "element": "Ca",
                        "occu": 1
                    }
                ],
                "abc": [
                    0.0,
                    0.0,
                    0.0
                ],
                "xyz": [
                    0.0,
                    0.0,
                    0.0
                ],
                "label": "Ca",
                "properties": {}
            },
            {
                "species": [
                    {
                        "element": "Ca",
                        "occu": 1
                    }
                ],
                "abc": [
                    0.0,
                    0.0,
                    0.5
                ],
                "xyz": [
                    -0.292488555,
                    0.0,
                    7.44293741
                ],
                "label": "Ca",
                "properties": {}
            },
            {
                "species": [
                    {
                        "element": "Sb",
                        "occu": 1
                    }
                ],
                "abc": [
                    0.35544078,
                    0.6872212,
                    0.15436864
                ],
                "xyz": [
                    3.0438052354496503,
                    1.7203081627991805,
                    2.29845415388451
                ],
                "label": "Sb",
                "properties": {}
            },
            {
                "species": [
                    {
                        "element": "Sb",
                        "occu": 1
                    }
                ],
                "abc": [
                    0.6872212,
                    0.35544078,
                    0.65436864
                ],
                "xyz": [
                    2.75131668044965,
                    -1.7203081627991805,
                    9.74139156388451
                ],
                "label": "Sb",
                "properties": {}
            },
            {
                "species": [
                    {
                        "element": "Sb",
                        "occu": 1
                    }
                ],
                "abc": [
                    0.3127788,
                    0.64455922,
                    0.34563136
                ],
                "xyz": [
                    2.675448109550349,
                    1.7203081627991805,
                    5.14552271611549
                ],
                "label": "Sb",
                "properties": {}
            },
            {
                "species": [
                    {
                        "element": "Sb",
                        "occu": 1
                    }
                ],
                "abc": [
                    0.64455922,
                    0.3127788,
                    0.84563136
                ],
                "xyz": [
                    2.3829595545503492,
                    -1.7203081627991805,
                    12.588460126115491
                ],
                "label": "Sb",
                "properties": {}
            },
            {
                "species": [
                    {
                        "element": "O",
                        "occu": 1
                    }
                ],
                "abc": [
                    0.51965418,
                    0.04400339,
                    0.73597158
                ],
                "xyz": [
                    1.2637553875000576,
                    -2.4662876027430394,
                    10.95587376070647
                ],
                "label": "O",
                "properties": {}
            },
            {
                "species": [
                    {
                        "element": "O",
                        "occu": 1
                    }
                ],
                "abc": [
                    0.21887418,
                    0.876405,
                    0.09122033
                ],
                "xyz": [
                    3.238906064285174,
                    3.4093501869038523,
                    1.3584636628673121
                ],
                "label": "O",
                "properties": {}
            },
            {
                "species": [
                    {
                        "element": "O",
                        "occu": 1
                    }
                ],
                "abc": [
                    0.876405,
                    0.21887418,
                    0.59122033
                ],
                "xyz": [
                    2.9464175092851743,
                    -3.4093501869038523,
                    8.80140107286731
                ],
                "label": "O",
                "properties": {}
            },
            {
                "species": [
                    {
                        "element": "O",
                        "occu": 1
                    }
                ],
                "abc": [
                    0.30610749,
                    0.12915143,
                    0.8963609
                ],
                "xyz": [
                    0.783981534557375,
                    -0.9175314036759056,
                    13.34334236806103
                ],
                "label": "O",
                "properties": {}
            },
            {
                "species": [
                    {
                        "element": "O",
                        "occu": 1
                    }
                ],
                "abc": [
                    0.48034582,
                    0.95599661,
                    0.26402842
                ],
                "xyz": [
                    4.163009402499942,
                    2.4662876027430403,
                    3.931040519293528
                ],
                "label": "O",
                "properties": {}
            },
            {
                "species": [
                    {
                        "element": "O",
                        "occu": 1
                    }
                ],
                "abc": [
                    0.69389251,
                    0.87084857,
                    0.1036391
                ],
                "xyz": [
                    4.642783255442625,
                    0.9175314036759059,
                    1.5435719119389704
                ],
                "label": "O",
                "properties": {}
            },
            {
                "species": [
                    {
                        "element": "O",
                        "occu": 1
                    }
                ],
                "abc": [
                    0.04400339,
                    0.51965418,
                    0.23597158
                ],
                "xyz": [
                    1.5562439425000574,
                    2.4662876027430394,
                    3.5129363507064713
                ],
                "label": "O",
                "properties": {}
            },
            {
                "species": [
                    {
                        "element": "O",
                        "occu": 1
                    }
                ],
                "abc": [
                    0.60457167,
                    0.78181057,
                    0.43035969
                ],
                "xyz": [
                    3.9155355330952317,
                    0.9189979518247267,
                    6.407001017355602
                ],
                "label": "O",
                "properties": {}
            },
            {
                "species": [
                    {
                        "element": "O",
                        "occu": 1
                    }
                ],
                "abc": [
                    0.51798791,
                    0.48201209,
                    0.75
                ],
                "xyz": [
                    2.5671381175,
                    -0.18653752023520287,
                    11.164925845
                ],
                "label": "O",
                "properties": {}
            },
            {
                "species": [
                    {
                        "element": "O",
                        "occu": 1
                    }
                ],
                "abc": [
                    0.21818943,
                    0.39542833,
                    0.06964031
                ],
                "xyz": [
                    1.8037178119047677,
                    0.9189979518247269,
                    1.036975852644399
                ],
                "label": "O",
                "properties": {}
            },
            {
                "species": [
                    {
                        "element": "O",
                        "occu": 1
                    }
                ],
                "abc": [
                    0.12915143,
                    0.30610749,
                    0.3963609
                ],
                "xyz": [
                    1.0764700895573749,
                    0.9175314036759056,
                    5.90040495806103
                ],
                "label": "O",
                "properties": {}
            },
            {
                "species": [
                    {
                        "element": "O",
                        "occu": 1
                    }
                ],
                "abc": [
                    0.78112582,
                    0.123595,
                    0.90877967
                ],
                "xyz": [
                    2.187858725714825,
                    -3.4093501869038527,
                    13.52845061713269
                ],
                "label": "O",
                "properties": {}
            },
            {
                "species": [
                    {
                        "element": "O",
                        "occu": 1
                    }
                ],
                "abc": [
                    0.95599661,
                    0.48034582,
                    0.76402842
                ],
                "xyz": [
                    3.8705208474999413,
                    -2.4662876027430403,
                    11.37397792929353
                ],
                "label": "O",
                "properties": {}
            },
            {
                "species": [
                    {
                        "element": "O",
                        "occu": 1
                    }
                ],
                "abc": [
                    0.78181057,
                    0.60457167,
                    0.93035969
                ],
                "xyz": [
                    3.623046978095232,
                    -0.9189979518247267,
                    13.8499384273556
                ],
                "label": "O",
                "properties": {}
            },
            {
                "species": [
                    {
                        "element": "O",
                        "occu": 1
                    }
                ],
                "abc": [
                    0.39542833,
                    0.21818943,
                    0.56964031
                ],
                "xyz": [
                    1.5112292569047676,
                    -0.9189979518247269,
                    8.479913262644398
                ],
                "label": "O",
                "properties": {}
            },
            {
                "species": [
                    {
                        "element": "O",
                        "occu": 1
                    }
                ],
                "abc": [
                    0.87084857,
                    0.69389251,
                    0.6036391
                ],
                "xyz": [
                    4.350294700442625,
                    -0.9175314036759059,
                    8.98650932193897
                ],
                "label": "O",
                "properties": {}
            },
            {
                "species": [
                    {
                        "element": "O",
                        "occu": 1
                    }
                ],
                "abc": [
                    0.123595,
                    0.78112582,
                    0.40877967
                ],
                "xyz": [
                    2.480347280714825,
                    3.4093501869038527,
                    6.085513207132688
                ],
                "label": "O",
                "properties": {}
            },
            {
                "species": [
                    {
                        "element": "O",
                        "occu": 1
                    }
                ],
                "abc": [
                    0.48201209,
                    0.51798791,
                    0.25
                ],
                "xyz": [
                    2.8596266724999997,
                    0.18653752023520287,
                    3.721988435
                ],
                "label": "O",
                "properties": {}
            }
        ]
    },
    "spacegroup": {
        "source": "spglib",
        "symbol": "C2/c",
        "number": 15,
        "point_group": "2/m",
        "crystal_system": "monoclinic",
        "hall": "-C 2yc"
    },
    "dielectric": {
        "epsilon_ionic": [
            [
                14.94005145,
                0.0,
                -0.86550604
            ],
            [
                0.0,
                16.7770547,
                0.0
            ],
            [
                -0.86550604,
                0.0,
                15.76567811
            ]
        ],
        "epsilon_ionic_avg": 15.827594753333335,
        "epsilon_ionic_eig": [
            14.393951045244798,
            16.3117785147552,
            16.7770547
        ],
        "epsilon_electronic": [
            [
                3.87230445,
                0.0,
                0.00901677
            ],
            [
                0.0,
                3.87966155,
                0.0
            ],
            [
                0.00903514,
                0.0,
                4.02199802
            ]
        ],
        "epsilon_electronic_avg": 3.924654673333333,
        "epsilon_electronic_eig": [
            3.8717621840434187,
            4.022540285956581,
            3.87966155
        ]
    },
    "phonon": {
        "lowest_freq": -0.05344772220977903,
        "frequency": [
            -0.05344772220977903,
            -0.03584272648089694,
            -0.028959291168824786,
            0.7479215943154829,
            1.1390232657005388,
            1.2046379603265474,
            1.4640556189909524,
            1.5542917209543905,
            1.688665762372476,
            2.0258764358989088,
            2.2169517437044926,
            2.3193750408161975,
            2.398302765663841,
            2.499069225699748,
            2.5078036794127345,
            2.5186903870825663,
            2.527033407855751,
            2.6004473503147394,
            2.637453065961533,
            2.709299804945947,
            2.7397772365840902,
            3.180942721044336,
            3.186026694277883,
            3.343285230505338,
            3.384105709369343,
            3.4645299807636727,
            3.5458201505226383,
            3.5824569495259153,
            3.797878186512266,
            4.227488491043785,
            4.2731107652635645,
            4.414530265837703,
            4.846576325738311,
            5.233592197802773,
            5.913026762141789,
            6.054996375710976,
            6.2245481505610725,
            6.225173573679716,
            6.37520809296681,
            6.3959778976843875,
            6.465521411072594,
            6.493857099236356,
            6.622148627548244,
            7.602478459555157,
            7.760817486792632,
            7.787567415551615,
            8.024104446960143,
            8.193779808675563,
            8.29424942951723,
            8.310931789950367,
            8.423814017119811,
            8.75839178395001,
            8.91984225629313,
            8.969293336002305,
            9.077139451601537,
            9.132941658384237,
            9.28261785104047,
            9.340716060553282,
            9.731349323774355,
            10.821434057727782,
            10.898983070594923,
            11.02854994307375,
            11.164410394169051,
            11.487759931828656,
            11.699419433050116,
            11.787982979093332,
            11.837487280868016,
            12.0010061819515,
            12.785547931103112,
            12.884049023913109,
            13.976852378557309,
            13.977764185837792,
            14.014402168868315,
            14.299898849322664,
            15.029877820271592,
            16.6794485285583,
            17.381746204340512,
            17.41133075619493,
            19.66830253935649,
            19.70057470610599,
            19.723108190155124,
            19.752266412427648,
            19.764033661213098,
            19.779310406139253,
            19.801765092343146,
            19.81630403092562,
            21.31104124765575,
            22.417769192486364,
            22.472959769462065,
            22.641524599399308
        ]
    },
    "born_effective_charge": {
        "avg_abs_trace": 2.559546777777778,
        "tensors": [
            [
                [
                    2.68109,
                    6e-05,
                    0.26795
                ],
                [
                    0.0,
                    2.80105,
                    0.0
                ],
                [
                    0.16103,
                    1e-05,
                    2.5005
                ]
            ],
            [
                [
                    2.8256,
                    0.01371,
                    0.01761
                ],
                [
                    0.02103,
                    2.78055,
                    -0.06079
                ],
                [
                    -0.04366,
                    -0.09302,
                    2.77426
                ]
            ],
            [
                [
                    2.82558,
                    -0.01388,
                    0.01754
                ],
                [
                    -0.02103,
                    2.78055,
                    0.06079
                ],
                [
                    -0.04362,
                    0.09301,
                    2.77437
                ]
            ],
            [
                [
                    2.8256,
                    -0.01371,
                    0.01761
                ],
                [
                    -0.02135,
                    2.78067,
                    0.06076
                ],
                [
                    -0.04366,
                    0.09302,
                    2.77426
                ]
            ],
            [
                [
                    2.82558,
                    0.01388,
                    0.01754
                ],
                [
                    0.02135,
                    2.78067,
                    -0.06076
                ],
                [
                    -0.04362,
                    -0.09301,
                    2.77437
                ]
            ],
            [
                [
                    2.68109,
                    -6e-05,
                    0.26795
                ],
                [
                    0.0,
                    2.80108,
                    0.0
                ],
                [
                    0.16103,
                    -1e-05,
                    2.5005
                ]
            ],
            [
                [
                    2.75943,
                    -0.01861,
                    -0.1248
                ],
                [
                    -0.01553,
                    2.71068,
                    -0.0479
                ],
                [
                    0.1544,
                    -0.01521,
                    2.85251
                ]
            ],
            [
                [
                    2.75943,
                    0.01861,
                    -0.1248
                ],
                [
                    0.01553,
                    2.71068,
                    0.0479
                ],
                [
                    0.1544,
                    0.01521,
                    2.85251
                ]
            ],
            [
                [
                    3.76653,
                    0.02112,
                    -0.13882
                ],
                [
                    -0.0069,
                    3.81539,
                    0.05253
                ],
                [
                    -0.02965,
                    -0.01093,
                    4.67993
                ]
            ],
            [
                [
                    3.76653,
                    -0.02112,
                    -0.13882
                ],
                [
                    0.00689,
                    3.81532,
                    -0.05267
                ],
                [
                    -0.02965,
                    0.01093,
                    4.67993
                ]
            ],
            [
                [
                    3.76653,
                    -0.02112,
                    -0.13886
                ],
                [
                    0.0069,
                    3.81539,
                    -0.05253
                ],
                [
                    -0.02963,
                    0.01091,
                    4.67978
                ]
            ],
            [
                [
                    3.76653,
                    0.02112,
                    -0.13886
                ],
                [
                    -0.00689,
                    3.81532,
                    0.05267
                ],
                [
                    -0.02963,
                    -0.01091,
                    4.67978
                ]
            ],
            [
                [
                    -1.9716,
                    -0.18279,
                    -0.04193
                ],
                [
                    -0.18239,
                    -1.8008,
                    -0.1281
                ],
                [
                    -0.09908,
                    -0.11365,
                    -2.37325
                ]
            ],
            [
                [
                    -1.9055,
                    -0.05224,
                    0.05898
                ],
                [
                    -0.04702,
                    -2.48893,
                    0.39974
                ],
                [
                    0.06301,
                    0.45507,
                    -2.13599
                ]
            ],
            [
                [
                    -1.9055,
                    0.05224,
                    0.05898
                ],
                [
                    0.04701,
                    -2.489,
                    -0.39974
                ],
                [
                    0.06301,
                    -0.45507,
                    -2.13599
                ]
            ],
            [
                [
                    -2.39467,
                    0.31141,
                    0.30763
                ],
                [
                    0.32896,
                    -2.02033,
                    -0.11613
                ],
                [
                    0.31832,
                    -0.10054,
                    -2.12899
                ]
            ],
            [
                [
                    -1.97176,
                    -0.18297,
                    -0.04189
                ],
                [
                    -0.1822,
                    -1.80068,
                    -0.12829
                ],
                [
                    -0.09901,
                    -0.11363,
                    -2.37318
                ]
            ],
            [
                [
                    -2.39476,
                    0.31151,
                    0.30767
                ],
                [
                    0.32899,
                    -2.0205,
                    -0.11633
                ],
                [
                    0.31819,
                    -0.10048,
                    -2.12899
                ]
            ],
            [
                [
                    -1.9716,
                    0.18279,
                    -0.04193
                ],
                [
                    0.1822,
                    -1.80068,
                    0.12829
                ],
                [
                    -0.09908,
                    0.11365,
                    -2.37325
                ]
            ],
            [
                [
                    -2.19878,
                    0.25603,
                    -0.37584
                ],
                [
                    0.2601,
                    -1.98272,
                    0.22957
                ],
                [
                    -0.42656,
                    0.23131,
                    -2.29923
                ]
            ],
            [
                [
                    -1.68335,
                    0.00014,
                    0.2015
                ],
                [
                    0.0,
                    -2.11816,
                    0.0
                ],
                [
                    0.11968,
                    0.0001,
                    -2.38657
                ]
            ],
            [
                [
                    -2.19885,
                    -0.25601,
                    -0.37583
                ],
                [
                    -0.2601,
                    -1.98272,
                    -0.22957
                ],
                [
                    -0.42643,
                    -0.23123,
                    -2.29915
                ]
            ],
            [
                [
                    -2.39467,
                    -0.31141,
                    0.30763
                ],
                [
                    -0.32899,
                    -2.0205,
                    0.11633
                ],
                [
                    0.31832,
                    0.10054,
                    -2.12899
                ]
            ],
            [
                [
                    -1.90549,
                    -0.05236,
                    0.05909
                ],
                [
                    -0.04701,
                    -2.489,
                    0.39974
                ],
                [
                    0.06301,
                    0.45526,
                    -2.13602
                ]
            ],
            [
                [
                    -1.97176,
                    0.18297,
                    -0.04189
                ],
                [
                    0.18239,
                    -1.8008,
                    0.1281
                ],
                [
                    -0.09901,
                    0.11363,
                    -2.37318
                ]
            ],
            [
                [
                    -2.19878,
                    -0.25603,
                    -0.37584
                ],
                [
                    -0.2599,
                    -1.98258,
                    -0.22984
                ],
                [
                    -0.42656,
                    -0.23131,
                    -2.29923
                ]
            ],
            [
                [
                    -2.19885,
                    0.25601,
                    -0.37583
                ],
                [
                    0.2599,
                    -1.98258,
                    0.22984
                ],
                [
                    -0.42643,
                    0.23123,
                    -2.29915
                ]
            ],
            [
                [
                    -2.39476,
                    -0.31151,
                    0.30767
                ],
                [
                    -0.32896,
                    -2.02033,
                    0.11613
                ],
                [
                    0.31819,
                    0.10048,
                    -2.12899
                ]
            ],
            [
                [
                    -1.90549,
                    0.05236,
                    0.05909
                ],
                [
                    0.04702,
                    -2.48893,
                    -0.39974
                ],
                [
                    0.06301,
                    -0.45526,
                    -2.13602
                ]
            ],
            [
                [
                    -1.68335,
                    -0.00014,
                    0.2015
                ],
                [
                    0.0,
                    -2.11814,
                    0.0
                ],
                [
                    0.11968,
                    -0.0001,
                    -2.38657
                ]
            ]
        ]
    },
    "band_gap": 3.3512000000000004,
    "is_direct": true,
    "formula": "Ba3CaSb2O9"
}