{
    "mp_id": "mp-504811",
    "nelements": 3,
    "nsites": 26,
    "elements": [
        "O",
        "Pb",
        "Rb"
    ],
    "structure": {
        "@module": "pymatgen.core.structure",
        "@class": "Structure",
        "charge": null,
        "lattice": {
            "matrix": [
                [
                    6.68581528,
                    -4.599e-05,
                    -0.00029032
                ],
                [
                    -0.00530579,
                    7.33187989,
                    -0.00334379
                ],
                [
                    -1.67181809,
                    -2.14700173,
                    10.0994084
                ]
            ],
            "a": 6.685815286461499,
            "b": 7.331882572281521,
            "c": 10.459571797385626,
            "alpha": 101.86411596262393,
            "beta": 99.19973978289893,
            "gamma": 90.04185565446006,
            "volume": 495.0173425287567
        },
        "sites": [
            {
                "species": [
                    {
                        "element": "Rb",
                        "occu": 1
                    }
                ],
                "abc": [
                    0.9192336,
                    0.16954833,
                    0.68821131
                ],
                "xyz": [
                    4.994362343134979,
                    -0.2345251576187466,
                    6.949693279279882
                ],
                "label": "Rb",
                "properties": {}
            },
            {
                "species": [
                    {
                        "element": "Rb",
                        "occu": 1
                    }
                ],
                "abc": [
                    0.0807664,
                    0.83045167,
                    0.31178869
                ],
                "xyz": [
                    0.014329056865020728,
                    5.419357327618746,
                    3.1460810107201183
                ],
                "label": "Rb",
                "properties": {}
            },
            {
                "species": [
                    {
                        "element": "Rb",
                        "occu": 1
                    }
                ],
                "abc": [
                    0.42397936,
                    0.16889099,
                    0.68516872
                ],
                "xyz": [
                    1.6882741225686444,
                    -0.23278947280946083,
                    6.919110900494
                ],
                "label": "Rb",
                "properties": {}
            },
            {
                "species": [
                    {
                        "element": "Rb",
                        "occu": 1
                    }
                ],
                "abc": [
                    0.57602064,
                    0.83110901,
                    0.31483128
                ],
                "xyz": [
                    3.3204172774313556,
                    5.417621642809461,
                    3.176663389505999
                ],
                "label": "Rb",
                "properties": {}
            },
            {
                "species": [
                    {
                        "element": "Pb",
                        "occu": 1
                    }
                ],
                "abc": [
                    0.90463622,
                    0.64871152,
                    0.62542378
                ],
                "xyz": [
                    4.99919394610156,
                    3.4134474060364353,
                    6.3139783882109
                ],
                "label": "Pb",
                "properties": {}
            },
            {
                "species": [
                    {
                        "element": "Pb",
                        "occu": 1
                    }
                ],
                "abc": [
                    0.09536378,
                    0.35128848,
                    0.37457622
                ],
                "xyz": [
                    0.009497453898439367,
                    1.7713847639635643,
                    3.781795901789099
                ],
                "label": "Pb",
                "properties": {}
            },
            {
                "species": [
                    {
                        "element": "Pb",
                        "occu": 1
                    }
                ],
                "abc": [
                    0.4083372,
                    0.64779032,
                    0.6260232
                ],
                "xyz": [
                    1.6800331412307752,
                    3.405429147296701,
                    6.320179341424863
                ],
                "label": "Pb",
                "properties": {}
            },
            {
                "species": [
                    {
                        "element": "Pb",
                        "occu": 1
                    }
                ],
                "abc": [
                    0.5916628,
                    0.35220968,
                    0.3739768
                ],
                "xyz": [
                    3.3286582587692246,
                    1.779403022703299,
                    3.7755949485751366
                ],
                "label": "Pb",
                "properties": {}
            },
            {
                "species": [
                    {
                        "element": "Pb",
                        "occu": 1
                    }
                ],
                "abc": [
                    0.74279162,
                    0.60389792,
                    0.97054208
                ],
                "xyz": [
                    3.3403936008567694,
                    2.343917329476427,
                    9.799665880216436
                ],
                "label": "Pb",
                "properties": {}
            },
            {
                "species": [
                    {
                        "element": "Pb",
                        "occu": 1
                    }
                ],
                "abc": [
                    0.25720838,
                    0.39610208,
                    0.02945792
                ],
                "xyz": [
                    1.6682977991432304,
                    2.840914840523573,
                    0.2961084097835632
                ],
                "label": "Pb",
                "properties": {}
            },
            {
                "species": [
                    {
                        "element": "Pb",
                        "occu": 1
                    }
                ],
                "abc": [
                    0.2339325,
                    0.84257436,
                    0.93431599
                ],
                "xyz": [
                    -0.002447413483203542,
                    4.171665200461282,
                    9.43315345065769
                ],
                "label": "Pb",
                "properties": {}
            },
            {
                "species": [
                    {
                        "element": "Pb",
                        "occu": 1
                    }
                ],
                "abc": [
                    0.7660675,
                    0.15742564,
                    0.06568401
                ],
                "xyz": [
                    5.011138813483203,
                    1.013166969538717,
                    0.6626208393423084
                ],
                "label": "Pb",
                "properties": {}
            },
            {
                "species": [
                    {
                        "element": "O",
                        "occu": 1
                    }
                ],
                "abc": [
                    0.65015127,
                    0.4334223,
                    0.59625851
                ],
                "xyz": [
                    3.347655884237842,
                    1.8976022922934173,
                    6.02022017939626
                ],
                "label": "O",
                "properties": {}
            },
            {
                "species": [
                    {
                        "element": "O",
                        "occu": 1
                    }
                ],
                "abc": [
                    0.34984873,
                    0.5665777,
                    0.40374149
                ],
                "xyz": [
                    1.661035515762157,
                    3.2872298777065825,
                    4.075554110603739
                ],
                "label": "O",
                "properties": {}
            },
            {
                "species": [
                    {
                        "element": "O",
                        "occu": 1
                    }
                ],
                "abc": [
                    0.14774983,
                    0.43423777,
                    0.59572766
                ],
                "xyz": [
                    -0.010424182087655276,
                    1.904744061697912,
                    6.015002038872749
                ],
                "label": "O",
                "properties": {}
            },
            {
                "species": [
                    {
                        "element": "O",
                        "occu": 1
                    }
                ],
                "abc": [
                    0.85225017,
                    0.56576223,
                    0.40427234
                ],
                "xyz": [
                    5.019115582087656,
                    3.2800881083020883,
                    4.08077225112725
                ],
                "label": "O",
                "properties": {}
            },
            {
                "species": [
                    {
                        "element": "O",
                        "occu": 1
                    }
                ],
                "abc": [
                    0.6548812,
                    0.8407757,
                    0.62144359
                ],
                "xyz": [
                    3.33501311856689,
                    4.830195866016874,
                    6.27321111048427
                ],
                "label": "O",
                "properties": {}
            },
            {
                "species": [
                    {
                        "element": "O",
                        "occu": 1
                    }
                ],
                "abc": [
                    0.3451188,
                    0.1592243,
                    0.37855641
                ],
                "xyz": [
                    1.6736782814331104,
                    0.3546363039831256,
                    3.822563179515731
                ],
                "label": "O",
                "properties": {}
            },
            {
                "species": [
                    {
                        "element": "O",
                        "occu": 1
                    }
                ],
                "abc": [
                    0.16117763,
                    0.84400733,
                    0.64197708
                ],
                "xyz": [
                    -0.00014315991263180727,
                    4.809827055900041,
                    6.480719737999949
                ],
                "label": "O",
                "properties": {}
            },
            {
                "species": [
                    {
                        "element": "O",
                        "occu": 1
                    }
                ],
                "abc": [
                    0.83882237,
                    0.15599267,
                    0.35802292
                ],
                "xyz": [
                    5.008834559912631,
                    0.3750051140999583,
                    3.6150545520000503
                ],
                "label": "O",
                "properties": {}
            },
            {
                "species": [
                    {
                        "element": "O",
                        "occu": 1
                    }
                ],
                "abc": [
                    0.96357862,
                    0.65141989,
                    0.83576009
                ],
                "xyz": [
                    5.041613526577123,
                    2.9817097173613227,
                    8.438224515871813
                ],
                "label": "O",
                "properties": {}
            },
            {
                "species": [
                    {
                        "element": "O",
                        "occu": 1
                    }
                ],
                "abc": [
                    0.03642138,
                    0.34858011,
                    0.16423991
                ],
                "xyz": [
                    -0.032922126577122374,
                    2.2031224526386772,
                    1.6575497741281853
                ],
                "label": "O",
                "properties": {}
            },
            {
                "species": [
                    {
                        "element": "O",
                        "occu": 1
                    }
                ],
                "abc": [
                    0.45375542,
                    0.64958862,
                    0.83592928
                ],
                "xyz": [
                    1.6327566473500328,
                    2.967943261221431,
                    8.440087370032748
                ],
                "label": "O",
                "properties": {}
            },
            {
                "species": [
                    {
                        "element": "O",
                        "occu": 1
                    }
                ],
                "abc": [
                    0.54624458,
                    0.35041138,
                    0.16407072
                ],
                "xyz": [
                    3.3759347526499672,
                    2.2168889087785684,
                    1.6556869199672521
                ],
                "label": "O",
                "properties": {}
            },
            {
                "species": [
                    {
                        "element": "O",
                        "occu": 1
                    }
                ],
                "abc": [
                    0.7258902,
                    0.3026545,
                    0.9016249
                ],
                "xyz": [
                    3.3442091513282604,
                    0.28320283836663007,
                    9.10465533517574
                ],
                "label": "O",
                "properties": {}
            },
            {
                "species": [
                    {
                        "element": "O",
                        "occu": 1
                    }
                ],
                "abc": [
                    0.2741098,
                    0.6973455,
                    0.0983751
                ],
                "xyz": [
                    1.6644822486717399,
                    4.9016293316333694,
                    0.9911189548242589
                ],
                "label": "O",
                "properties": {}
            }
        ]
    },
    "spacegroup": {
        "source": "spglib",
        "symbol": "P-1",
        "number": 2,
        "point_group": "-1",
        "crystal_system": "triclinic",
        "hall": "-P 1"
    },
    "dielectric": {
        "epsilon_ionic": [
            [
                7.01432397,
                -0.00310976,
                0.15346733
            ],
            [
                -0.00310976,
                4.24580322,
                -1.15026715
            ],
            [
                0.15346733,
                -1.15026715,
                9.03037618
            ]
        ],
        "epsilon_ionic_avg": 6.763501123333332,
        "epsilon_ionic_eig": [
            7.004766542045752,
            9.302424454814034,
            3.98331237314021
        ],
        "epsilon_electronic": [
            [
                5.34486281,
                0.0004414,
                -0.00066172
            ],
            [
                0.00044282,
                4.4181646,
                0.07022362
            ],
            [
                -0.0006624,
                0.07022416,
                5.05442339
            ]
        ],
        "epsilon_electronic_avg": 4.939150266666669,
        "epsilon_electronic_eig": [
            5.344864406601617,
            5.062080502820748,
            4.410505890577642
        ]
    },
    "phonon": {
        "lowest_freq": -0.058124982018359736,
        "frequency": [
            -0.058124982018359736,
            -0.042053344538106475,
            -0.018266925305827218,
            1.1717974765192458,
            1.174853354531123,
            1.2321762395911404,
            1.3222692217633554,
            1.4832101801822322,
            1.596931193412323,
            1.6544316604399303,
            1.756113822868273,
            1.815131873822652,
            1.8764451616927114,
            1.9254221058793421,
            2.1215780024142976,
            2.205542849781525,
            2.226550100430951,
            2.260285358772987,
            2.324317297827987,
            2.389212488078145,
            2.4785684294135977,
            2.5535697061402267,
            2.6251371731429995,
            2.7289772600782616,
            2.756686196512297,
            2.9936921527422187,
            3.1704230113907905,
            3.3574261142053348,
            3.572949733862107,
            3.5786557767476,
            3.6348182314691853,
            3.9863029099985767,
            4.034263860061324,
            4.388053472161621,
            4.589106252439961,
            4.7508420228094685,
            4.8392587158421,
            5.189655265298136,
            5.565697208140045,
            5.605853859630448,
            5.75143339839933,
            5.828256411465413,
            6.06293345610796,
            6.434623917767488,
            6.946479551324967,
            6.9504231668328025,
            8.995368348541778,
            10.390804815572514,
            10.610803263667014,
            10.665825118694064,
            10.857979100596346,
            10.864966005312803,
            11.407964838186471,
            11.470654434989756,
            11.638849898108097,
            11.72995880657695,
            11.99246874630434,
            12.19288684231918,
            12.251182995983452,
            12.357468031435255,
            12.61564573044954,
            12.830723180055628,
            13.012245702098797,
            13.155018860798648,
            13.309264179398111,
            13.640580520272227,
            13.685743190520142,
            13.841008919364917,
            13.841955506489331,
            14.002732282157075,
            14.15879077892736,
            14.425617336558172,
            14.978808784486194,
            15.387954478087313,
            15.497495521540738,
            15.532499029616705,
            15.980846186341275,
            16.655929489140814
        ]
    },
    "born_effective_charge": {
        "avg_abs_trace": 2.3366202564102565,
        "tensors": [
            [
                [
                    1.16425,
                    -0.02161,
                    -0.06404
                ],
                [
                    -0.08317,
                    1.58785,
                    -0.0432
                ],
                [
                    -0.09052,
                    -0.01719,
                    1.29832
                ]
            ],
            [
                [
                    1.16429,
                    -0.02163,
                    -0.06413
                ],
                [
                    -0.08302,
                    1.58804,
                    -0.04307
                ],
                [
                    -0.09061,
                    -0.0173,
                    1.29862
                ]
            ],
            [
                [
                    1.1246,
                    0.01872,
                    0.06008
                ],
                [
                    0.07395,
                    1.58374,
                    -0.06811
                ],
                [
                    0.08466,
                    -0.03063,
                    1.3046
                ]
            ],
            [
                [
                    1.12461,
                    0.01876,
                    0.06003
                ],
                [
                    0.07401,
                    1.58356,
                    -0.06801
                ],
                [
                    0.08474,
                    -0.03065,
                    1.30506
                ]
            ],
            [
                [
                    4.91099,
                    -0.06766,
                    0.19314
                ],
                [
                    -0.1279,
                    2.31905,
                    0.19102
                ],
                [
                    0.18304,
                    0.514,
                    4.34779
                ]
            ],
            [
                [
                    4.91109,
                    -0.06769,
                    0.19298
                ],
                [
                    -0.12764,
                    2.31928,
                    0.1912
                ],
                [
                    0.18291,
                    0.51417,
                    4.34873
                ]
            ],
            [
                [
                    4.83938,
                    0.06155,
                    -0.18943
                ],
                [
                    0.12705,
                    2.33343,
                    0.22472
                ],
                [
                    -0.18647,
                    0.51923,
                    4.31922
                ]
            ],
            [
                [
                    4.83933,
                    0.06154,
                    -0.18961
                ],
                [
                    0.1269,
                    2.33349,
                    0.22485
                ],
                [
                    -0.18626,
                    0.51927,
                    4.32002
                ]
            ],
            [
                [
                    3.08125,
                    0.00617,
                    -0.00542
                ],
                [
                    -0.00124,
                    2.84235,
                    -0.14375
                ],
                [
                    0.00325,
                    -1.31828,
                    1.38388
                ]
            ],
            [
                [
                    3.08124,
                    0.00635,
                    -0.00569
                ],
                [
                    -0.0014,
                    2.84227,
                    -0.14348
                ],
                [
                    0.00309,
                    -1.31895,
                    1.38488
                ]
            ],
            [
                [
                    2.42727,
                    0.00517,
                    -0.00208
                ],
                [
                    0.00953,
                    2.23855,
                    -0.41028
                ],
                [
                    -0.00354,
                    0.04475,
                    2.45508
                ]
            ],
            [
                [
                    2.42718,
                    0.0051,
                    -0.00231
                ],
                [
                    0.00953,
                    2.23883,
                    -0.41029
                ],
                [
                    -0.00333,
                    0.04561,
                    2.45608
                ]
            ],
            [
                [
                    -2.44338,
                    -0.01761,
                    -0.02058
                ],
                [
                    -0.01253,
                    -1.5462,
                    -0.17033
                ],
                [
                    0.02085,
                    -0.41543,
                    -2.27381
                ]
            ],
            [
                [
                    -2.44335,
                    -0.01761,
                    -0.02054
                ],
                [
                    -0.01241,
                    -1.54639,
                    -0.17053
                ],
                [
                    0.02082,
                    -0.41509,
                    -2.27407
                ]
            ],
            [
                [
                    -2.47508,
                    0.01918,
                    0.01616
                ],
                [
                    0.01469,
                    -1.44136,
                    -0.09302
                ],
                [
                    -0.02365,
                    -0.47524,
                    -2.25358
                ]
            ],
            [
                [
                    -2.47506,
                    0.01918,
                    0.01616
                ],
                [
                    0.01452,
                    -1.44151,
                    -0.09332
                ],
                [
                    -0.02357,
                    -0.47496,
                    -2.25399
                ]
            ],
            [
                [
                    -2.76922,
                    -0.00427,
                    -0.00658
                ],
                [
                    -0.0,
                    -1.89265,
                    -0.06375
                ],
                [
                    0.01334,
                    -0.0686,
                    -1.46088
                ]
            ],
            [
                [
                    -2.7692,
                    -0.00421,
                    -0.00653
                ],
                [
                    -0.0,
                    -1.89324,
                    -0.06373
                ],
                [
                    0.0133,
                    -0.06899,
                    -1.46107
                ]
            ],
            [
                [
                    -2.89191,
                    0.00804,
                    0.00668
                ],
                [
                    -0.00067,
                    -1.80027,
                    0.05085
                ],
                [
                    -0.01004,
                    -0.10515,
                    -1.88072
                ]
            ],
            [
                [
                    -2.89195,
                    0.00811,
                    0.00674
                ],
                [
                    -0.00077,
                    -1.80098,
                    0.05078
                ],
                [
                    -0.00981,
                    -0.10532,
                    -1.88099
                ]
            ],
            [
                [
                    -2.74944,
                    -0.88229,
                    0.1378
                ],
                [
                    -0.6675,
                    -1.40003,
                    0.18104
                ],
                [
                    -0.1552,
                    0.13406,
                    -2.6872
                ]
            ],
            [
                [
                    -2.74933,
                    -0.88225,
                    0.13791
                ],
                [
                    -0.6674,
                    -1.4,
                    0.18035
                ],
                [
                    -0.15572,
                    0.13368,
                    -2.68883
                ]
            ],
            [
                [
                    -2.72593,
                    0.87275,
                    -0.13706
                ],
                [
                    0.66164,
                    -1.395,
                    0.18501
                ],
                [
                    0.156,
                    0.13551,
                    -2.70205
                ]
            ],
            [
                [
                    -2.72605,
                    0.87282,
                    -0.13679
                ],
                [
                    0.66133,
                    -1.39535,
                    0.18448
                ],
                [
                    0.15639,
                    0.1352,
                    -2.70334
                ]
            ],
            [
                [
                    -1.49279,
                    0.0018,
                    0.01143
                ],
                [
                    0.00638,
                    -3.4287,
                    0.16062
                ],
                [
                    0.00811,
                    1.08257,
                    -1.8502
                ]
            ],
            [
                [
                    -1.49276,
                    0.00161,
                    0.0117
                ],
                [
                    0.00612,
                    -3.42877,
                    0.15996
                ],
                [
                    0.00822,
                    1.08373,
                    -1.85155
                ]
            ]
        ]
    },
    "band_gap": 0.9418000000000002,
    "is_direct": false,
    "formula": "Rb2Pb4O7"
}