{
    "mp_id": "mp-540688",
    "nelements": 3,
    "nsites": 28,
    "elements": [
        "In",
        "O",
        "Sr"
    ],
    "structure": {
        "@module": "pymatgen.core.structure",
        "@class": "Structure",
        "charge": null,
        "lattice": {
            "matrix": [
                [
                    9.84496649,
                    0.0,
                    0.0
                ],
                [
                    0.0,
                    3.29358133,
                    0.0
                ],
                [
                    0.0,
                    0.0,
                    11.60957203
                ]
            ],
            "a": 9.84496649,
            "b": 3.29358133,
            "c": 11.60957203,
            "alpha": 90.0,
            "beta": 90.0,
            "gamma": 90.0,
            "volume": 376.44266974724553
        },
        "sites": [
            {
                "species": [
                    {
                        "element": "Sr",
                        "occu": 1
                    }
                ],
                "abc": [
                    0.25590682,
                    0.75,
                    0.84607931
                ],
                "xyz": [
                    2.5193940674624615,
                    2.4701859975,
                    9.8226186925377
                ],
                "label": "Sr",
                "properties": {}
            },
            {
                "species": [
                    {
                        "element": "Sr",
                        "occu": 1
                    }
                ],
                "abc": [
                    0.74409318,
                    0.25,
                    0.15392069
                ],
                "xyz": [
                    7.325572422537538,
                    0.8233953325,
                    1.7869533374623008
                ],
                "label": "Sr",
                "properties": {}
            },
            {
                "species": [
                    {
                        "element": "Sr",
                        "occu": 1
                    }
                ],
                "abc": [
                    0.75590682,
                    0.75,
                    0.65392069
                ],
                "xyz": [
                    7.441877312462461,
                    2.4701859975,
                    7.591739352462301
                ],
                "label": "Sr",
                "properties": {}
            },
            {
                "species": [
                    {
                        "element": "Sr",
                        "occu": 1
                    }
                ],
                "abc": [
                    0.24409318,
                    0.25,
                    0.34607931
                ],
                "xyz": [
                    2.403089177537538,
                    0.8233953325,
                    4.017832677537699
                ],
                "label": "Sr",
                "properties": {}
            },
            {
                "species": [
                    {
                        "element": "In",
                        "occu": 1
                    }
                ],
                "abc": [
                    0.91858525,
                    0.75,
                    0.39479147
                ],
                "xyz": [
                    9.043441004458272,
                    2.4701859975,
                    4.583360007794584
                ],
                "label": "In",
                "properties": {}
            },
            {
                "species": [
                    {
                        "element": "In",
                        "occu": 1
                    }
                ],
                "abc": [
                    0.08141475,
                    0.25,
                    0.60520853
                ],
                "xyz": [
                    0.8015254855417274,
                    0.8233953325,
                    7.026212022205416
                ],
                "label": "In",
                "properties": {}
            },
            {
                "species": [
                    {
                        "element": "In",
                        "occu": 1
                    }
                ],
                "abc": [
                    0.41858525,
                    0.75,
                    0.10520853
                ],
                "xyz": [
                    4.120957759458272,
                    2.4701859975,
                    1.221426007205416
                ],
                "label": "In",
                "properties": {}
            },
            {
                "species": [
                    {
                        "element": "In",
                        "occu": 1
                    }
                ],
                "abc": [
                    0.58141475,
                    0.25,
                    0.89479147
                ],
                "xyz": [
                    5.724008730541727,
                    0.8233953325,
                    10.388146022794585
                ],
                "label": "In",
                "properties": {}
            },
            {
                "species": [
                    {
                        "element": "In",
                        "occu": 1
                    }
                ],
                "abc": [
                    0.93016813,
                    0.75,
                    0.88907389
                ],
                "xyz": [
                    9.157474069915963,
                    2.4701859975,
                    10.321767365947299
                ],
                "label": "In",
                "properties": {}
            },
            {
                "species": [
                    {
                        "element": "In",
                        "occu": 1
                    }
                ],
                "abc": [
                    0.06983187,
                    0.25,
                    0.11092611
                ],
                "xyz": [
                    0.6874924200840363,
                    0.8233953325,
                    1.2878046640527032
                ],
                "label": "In",
                "properties": {}
            },
            {
                "species": [
                    {
                        "element": "In",
                        "occu": 1
                    }
                ],
                "abc": [
                    0.43016813,
                    0.75,
                    0.61092611
                ],
                "xyz": [
                    4.234990824915963,
                    2.4701859975,
                    7.092590679052703
                ],
                "label": "In",
                "properties": {}
            },
            {
                "species": [
                    {
                        "element": "In",
                        "occu": 1
                    }
                ],
                "abc": [
                    0.56983187,
                    0.25,
                    0.38907389
                ],
                "xyz": [
                    5.609975665084036,
                    0.8233953325,
                    4.5169813509472965
                ],
                "label": "In",
                "properties": {}
            },
            {
                "species": [
                    {
                        "element": "O",
                        "occu": 1
                    }
                ],
                "abc": [
                    0.70664622,
                    0.75,
                    0.33043308
                ],
                "xyz": [
                    6.956908356185167,
                    2.4701859975,
                    3.8361866433547527
                ],
                "label": "O",
                "properties": {}
            },
            {
                "species": [
                    {
                        "element": "O",
                        "occu": 1
                    }
                ],
                "abc": [
                    0.29335378,
                    0.25,
                    0.66956692
                ],
                "xyz": [
                    2.888058133814832,
                    0.8233953325,
                    7.773385386645248
                ],
                "label": "O",
                "properties": {}
            },
            {
                "species": [
                    {
                        "element": "O",
                        "occu": 1
                    }
                ],
                "abc": [
                    0.20664622,
                    0.75,
                    0.16956692
                ],
                "xyz": [
                    2.0344251111851674,
                    2.4701859975,
                    1.968599371645248
                ],
                "label": "O",
                "properties": {}
            },
            {
                "species": [
                    {
                        "element": "O",
                        "occu": 1
                    }
                ],
                "abc": [
                    0.79335378,
                    0.25,
                    0.83043308
                ],
                "xyz": [
                    7.810541378814832,
                    0.8233953325,
                    9.640972658354753
                ],
                "label": "O",
                "properties": {}
            },
            {
                "species": [
                    {
                        "element": "O",
                        "occu": 1
                    }
                ],
                "abc": [
                    0.62347052,
                    0.75,
                    0.02211772
                ],
                "xyz": [
                    6.138046376902874,
                    2.4701859975,
                    0.25677726347937163
                ],
                "label": "O",
                "properties": {}
            },
            {
                "species": [
                    {
                        "element": "O",
                        "occu": 1
                    }
                ],
                "abc": [
                    0.37652948,
                    0.25,
                    0.97788228
                ],
                "xyz": [
                    3.706920113097125,
                    0.8233953325,
                    11.35279476652063
                ],
                "label": "O",
                "properties": {}
            },
            {
                "species": [
                    {
                        "element": "O",
                        "occu": 1
                    }
                ],
                "abc": [
                    0.12347052,
                    0.75,
                    0.47788228
                ],
                "xyz": [
                    1.2155631319028748,
                    2.4701859975,
                    5.548008751520628
                ],
                "label": "O",
                "properties": {}
            },
            {
                "species": [
                    {
                        "element": "O",
                        "occu": 1
                    }
                ],
                "abc": [
                    0.87652948,
                    0.25,
                    0.52211772
                ],
                "xyz": [
                    8.629403358097123,
                    0.8233953325,
                    6.0615632784793725
                ],
                "label": "O",
                "properties": {}
            },
            {
                "species": [
                    {
                        "element": "O",
                        "occu": 1
                    }
                ],
                "abc": [
                    0.022567,
                    0.75,
                    0.71709729
                ],
                "xyz": [
                    0.22217135877983,
                    2.4701859975,
                    8.3251926407728
                ],
                "label": "O",
                "properties": {}
            },
            {
                "species": [
                    {
                        "element": "O",
                        "occu": 1
                    }
                ],
                "abc": [
                    0.977433,
                    0.25,
                    0.28290271
                ],
                "xyz": [
                    9.622795131220169,
                    0.8233953325,
                    3.2843793892272015
                ],
                "label": "O",
                "properties": {}
            },
            {
                "species": [
                    {
                        "element": "O",
                        "occu": 1
                    }
                ],
                "abc": [
                    0.522567,
                    0.75,
                    0.78290271
                ],
                "xyz": [
                    5.14465460377983,
                    2.4701859975,
                    9.089165404227202
                ],
                "label": "O",
                "properties": {}
            },
            {
                "species": [
                    {
                        "element": "O",
                        "occu": 1
                    }
                ],
                "abc": [
                    0.477433,
                    0.25,
                    0.21709729
                ],
                "xyz": [
                    4.700311886220169,
                    0.8233953325,
                    2.520406625772799
                ],
                "label": "O",
                "properties": {}
            },
            {
                "species": [
                    {
                        "element": "O",
                        "occu": 1
                    }
                ],
                "abc": [
                    0.9180473,
                    0.75,
                    0.07587467
                ],
                "xyz": [
                    9.038144904734976,
                    2.4701859975,
                    0.8808724466174802
                ],
                "label": "O",
                "properties": {}
            },
            {
                "species": [
                    {
                        "element": "O",
                        "occu": 1
                    }
                ],
                "abc": [
                    0.0819527,
                    0.25,
                    0.92412533
                ],
                "xyz": [
                    0.806821585265023,
                    0.8233953325,
                    10.72869958338252
                ],
                "label": "O",
                "properties": {}
            },
            {
                "species": [
                    {
                        "element": "O",
                        "occu": 1
                    }
                ],
                "abc": [
                    0.4180473,
                    0.75,
                    0.42412533
                ],
                "xyz": [
                    4.115661659734977,
                    2.4701859975,
                    4.92391356838252
                ],
                "label": "O",
                "properties": {}
            },
            {
                "species": [
                    {
                        "element": "O",
                        "occu": 1
                    }
                ],
                "abc": [
                    0.5819527,
                    0.25,
                    0.57587467
                ],
                "xyz": [
                    5.729304830265022,
                    0.8233953325,
                    6.685658461617481
                ],
                "label": "O",
                "properties": {}
            }
        ]
    },
    "spacegroup": {
        "source": "spglib",
        "symbol": "Pnma",
        "number": 62,
        "point_group": "mmm",
        "crystal_system": "orthorhombic",
        "hall": "-P 2ac 2n"
    },
    "dielectric": {
        "epsilon_ionic": [
            [
                10.65004693,
                -2e-08,
                -0.0
            ],
            [
                -2e-08,
                7.59916066,
                -0.0
            ],
            [
                -0.0,
                -0.0,
                7.83070863
            ]
        ],
        "epsilon_ionic_avg": 8.693305406666667,
        "epsilon_ionic_eig": [
            10.65004693,
            7.59916066,
            7.83070863
        ],
        "epsilon_electronic": [
            [
                4.440304,
                0.0,
                0.0
            ],
            [
                -0.0,
                4.60008492,
                0.0
            ],
            [
                0.0,
                0.0,
                4.46597635
            ]
        ],
        "epsilon_electronic_avg": 4.502121756666667,
        "epsilon_electronic_eig": [
            4.440304,
            4.60008492,
            4.46597635
        ]
    },
    "phonon": {
        "lowest_freq": -0.03891881231730398,
        "frequency": [
            -0.03891881231730398,
            -0.03785224525793363,
            -0.00834496728233531,
            2.1535930131406524,
            2.251306780245868,
            2.384361316473646,
            2.4368465042686216,
            2.502851507151957,
            2.6767086402161215,
            2.8421767101201647,
            2.923991296948555,
            3.032801426656671,
            3.15652176828561,
            3.1842506655926752,
            3.189640980267624,
            3.2413983222230707,
            3.4159744924456783,
            3.458545010100272,
            3.5733611741505222,
            3.577021726341809,
            3.6638910779450935,
            3.8002758710943856,
            4.091885372131997,
            4.623146082408522,
            4.644735431367852,
            4.705684884467119,
            5.165905082517674,
            5.202478158444696,
            5.419785235408379,
            5.676444120168803,
            5.9121307091527635,
            5.926240688862582,
            6.235169499205051,
            6.345057893888525,
            6.453809081749327,
            6.659919790621429,
            6.8496283776032065,
            6.901157936164996,
            7.034447624819337,
            7.427208433123595,
            9.31935036540047,
            9.549460198225514,
            9.59715134496245,
            9.600140932933037,
            9.713306140808173,
            10.06257385648713,
            10.123392046869716,
            10.307934842777238,
            10.354608953231336,
            10.36046911891622,
            10.380266641971193,
            10.61574101913793,
            10.626420712723487,
            10.821511636303573,
            10.82860815278085,
            10.99058793314452,
            11.040334202075544,
            11.594020153778594,
            11.607454933440003,
            11.874855996162712,
            11.880810364923114,
            12.379854572188416,
            12.507198514213389,
            12.595950973864712,
            13.062257539086303,
            13.129860734386094,
            13.256885467361746,
            13.298541642420473,
            13.346139854728467,
            13.477391251720247,
            13.56305407544851,
            14.013370828235333,
            14.166138366928102,
            14.44575696347824,
            14.788966478565891,
            15.757415345107662,
            15.789506470394425,
            16.229756951194528,
            16.473748704216202,
            16.597443892762968,
            17.775154777429428,
            17.83736554721355,
            18.24465452935226,
            18.54034270007782
        ]
    },
    "born_effective_charge": {
        "avg_abs_trace": 2.5984766666666665,
        "tensors": [
            [
                [
                    2.5719,
                    0.0,
                    -0.00972
                ],
                [
                    5e-05,
                    2.42696,
                    -0.00022
                ],
                [
                    0.06631,
                    0.0,
                    2.41737
                ]
            ],
            [
                [
                    2.57188,
                    0.0,
                    -0.00983
                ],
                [
                    -5e-05,
                    2.42696,
                    0.00022
                ],
                [
                    0.0663,
                    -0.0,
                    2.41741
                ]
            ],
            [
                [
                    2.5719,
                    0.0,
                    0.00972
                ],
                [
                    5e-05,
                    2.42696,
                    0.00022
                ],
                [
                    -0.0663,
                    -0.0,
                    2.41741
                ]
            ],
            [
                [
                    2.57188,
                    0.0,
                    0.00983
                ],
                [
                    -5e-05,
                    2.42696,
                    -0.00022
                ],
                [
                    -0.06631,
                    -0.0,
                    2.41737
                ]
            ],
            [
                [
                    3.17565,
                    0.0,
                    0.25521
                ],
                [
                    2e-05,
                    3.51549,
                    6e-05
                ],
                [
                    0.12172,
                    -0.0,
                    3.19193
                ]
            ],
            [
                [
                    3.17562,
                    -0.0,
                    0.25521
                ],
                [
                    -2e-05,
                    3.51549,
                    -6e-05
                ],
                [
                    0.12175,
                    -0.0,
                    3.19196
                ]
            ],
            [
                [
                    3.17565,
                    0.0,
                    -0.25521
                ],
                [
                    2e-05,
                    3.51549,
                    -6e-05
                ],
                [
                    -0.12175,
                    -0.0,
                    3.19196
                ]
            ],
            [
                [
                    3.17562,
                    -0.0,
                    -0.25521
                ],
                [
                    -2e-05,
                    3.51549,
                    6e-05
                ],
                [
                    -0.12172,
                    0.0,
                    3.19193
                ]
            ],
            [
                [
                    3.10522,
                    -0.0,
                    0.08705
                ],
                [
                    -4e-05,
                    3.447,
                    -7e-05
                ],
                [
                    -0.00297,
                    -0.0,
                    3.43255
                ]
            ],
            [
                [
                    3.10519,
                    0.0,
                    0.08709
                ],
                [
                    4e-05,
                    3.447,
                    7e-05
                ],
                [
                    -0.00294,
                    -0.0,
                    3.43242
                ]
            ],
            [
                [
                    3.10522,
                    -0.0,
                    -0.08705
                ],
                [
                    -4e-05,
                    3.447,
                    7e-05
                ],
                [
                    0.00294,
                    -0.0,
                    3.43242
                ]
            ],
            [
                [
                    3.10519,
                    0.0,
                    -0.08709
                ],
                [
                    4e-05,
                    3.447,
                    -7e-05
                ],
                [
                    0.00297,
                    -0.0,
                    3.43255
                ]
            ],
            [
                [
                    -2.55057,
                    0.0,
                    0.11451
                ],
                [
                    -0.0003,
                    -2.44676,
                    0.00017
                ],
                [
                    0.05821,
                    -0.0,
                    -2.0077
                ]
            ],
            [
                [
                    -2.55065,
                    -0.0,
                    0.1144
                ],
                [
                    0.0003,
                    -2.44676,
                    -0.00017
                ],
                [
                    0.05819,
                    -0.0,
                    -2.00763
                ]
            ],
            [
                [
                    -2.55057,
                    0.0,
                    -0.11451
                ],
                [
                    -0.0003,
                    -2.44676,
                    -0.00017
                ],
                [
                    -0.05819,
                    -0.0,
                    -2.00763
                ]
            ],
            [
                [
                    -2.55065,
                    -0.0,
                    -0.1144
                ],
                [
                    0.0003,
                    -2.44676,
                    0.00017
                ],
                [
                    -0.05821,
                    -0.0,
                    -2.0077
                ]
            ],
            [
                [
                    -2.07552,
                    0.0,
                    -0.09362
                ],
                [
                    -4e-05,
                    -2.40905,
                    -0.00041
                ],
                [
                    -0.06415,
                    0.0,
                    -2.30863
                ]
            ],
            [
                [
                    -2.07551,
                    0.0,
                    -0.09377
                ],
                [
                    4e-05,
                    -2.40905,
                    0.00041
                ],
                [
                    -0.06402,
                    0.0,
                    -2.30859
                ]
            ],
            [
                [
                    -2.07552,
                    0.0,
                    0.09362
                ],
                [
                    -4e-05,
                    -2.40905,
                    0.00041
                ],
                [
                    0.06402,
                    -0.0,
                    -2.30859
                ]
            ],
            [
                [
                    -2.07551,
                    0.0,
                    0.09377
                ],
                [
                    4e-05,
                    -2.40905,
                    -0.00041
                ],
                [
                    0.06415,
                    -0.0,
                    -2.30863
                ]
            ],
            [
                [
                    -2.06639,
                    0.0,
                    0.26536
                ],
                [
                    0.00015,
                    -2.1566,
                    -0.00027
                ],
                [
                    0.27768,
                    -0.0,
                    -2.58987
                ]
            ],
            [
                [
                    -2.0663,
                    -0.0,
                    0.2652
                ],
                [
                    -0.00015,
                    -2.1566,
                    0.00027
                ],
                [
                    0.27767,
                    -0.0,
                    -2.5899
                ]
            ],
            [
                [
                    -2.06639,
                    0.0,
                    -0.26536
                ],
                [
                    0.00015,
                    -2.1566,
                    0.00027
                ],
                [
                    -0.27767,
                    -0.0,
                    -2.5899
                ]
            ],
            [
                [
                    -2.0663,
                    -0.0,
                    -0.2652
                ],
                [
                    -0.00015,
                    -2.1566,
                    -0.00027
                ],
                [
                    -0.27768,
                    -0.0,
                    -2.58987
                ]
            ],
            [
                [
                    -2.16028,
                    -0.0,
                    0.1475
                ],
                [
                    0.00035,
                    -2.37704,
                    0.0
                ],
                [
                    0.04337,
                    0.0,
                    -2.1357
                ]
            ],
            [
                [
                    -2.16025,
                    0.0,
                    0.14746
                ],
                [
                    -0.00035,
                    -2.37704,
                    -0.0
                ],
                [
                    0.0434,
                    0.0,
                    -2.13563
                ]
            ],
            [
                [
                    -2.16028,
                    0.0,
                    -0.1475
                ],
                [
                    0.00035,
                    -2.37704,
                    -0.0
                ],
                [
                    -0.0434,
                    -0.0,
                    -2.13563
                ]
            ],
            [
                [
                    -2.16025,
                    0.0,
                    -0.14746
                ],
                [
                    -0.00035,
                    -2.37704,
                    0.0
                ],
                [
                    -0.04337,
                    -0.0,
                    -2.1357
                ]
            ]
        ]
    },
    "band_gap": 1.8879999999999995,
    "is_direct": false,
    "formula": "SrIn2O4"
}