{
    "mp_id": "mp-504810",
    "nelements": 4,
    "nsites": 33,
    "elements": [
        "Li",
        "O",
        "Pb",
        "Rb"
    ],
    "structure": {
        "@module": "pymatgen.core.structure",
        "@class": "Structure",
        "charge": null,
        "lattice": {
            "matrix": [
                [
                    -3.66161577,
                    4.00204352,
                    6.41763691
                ],
                [
                    3.66161577,
                    -4.00204352,
                    6.41763691
                ],
                [
                    3.66161577,
                    4.00204352,
                    -6.41763691
                ]
            ],
            "a": 8.402966493547444,
            "b": 8.402966493547444,
            "c": 8.402966493547444,
            "alpha": 128.3335954048771,
            "beta": 123.11643527430992,
            "gamma": 80.41089127715698,
            "volume": 376.17481030885085
        },
        "sites": [
            {
                "species": [
                    {
                        "element": "Rb",
                        "occu": 1
                    }
                ],
                "abc": [
                    0.5,
                    0.23809891,
                    0.73809891
                ],
                "xyz": [
                    1.7436534473516216,
                    4.00204352,
                    -8.881784197001252e-16
                ],
                "label": "Rb",
                "properties": {}
            },
            {
                "species": [
                    {
                        "element": "Rb",
                        "occu": 1
                    }
                ],
                "abc": [
                    0.5,
                    0.76190109,
                    0.26190109
                ],
                "xyz": [
                    1.9179623226483784,
                    2.220446049250313e-16,
                    6.41763691
                ],
                "label": "Rb",
                "properties": {}
            },
            {
                "species": [
                    {
                        "element": "Li",
                        "occu": 1
                    }
                ],
                "abc": [
                    0.84190351,
                    0.5,
                    0.34190351
                ],
                "xyz": [
                    2.220446049250313e-16,
                    2.73662545332151,
                    6.417636909999999
                ],
                "label": "Li",
                "properties": {}
            },
            {
                "species": [
                    {
                        "element": "Li",
                        "occu": 1
                    }
                ],
                "abc": [
                    0.15809649,
                    0.5,
                    0.65809649
                ],
                "xyz": [
                    3.66161577,
                    1.2654180666784898,
                    0.0
                ],
                "label": "Li",
                "properties": {}
            },
            {
                "species": [
                    {
                        "element": "Li",
                        "occu": 1
                    }
                ],
                "abc": [
                    0.41418177,
                    0.76889996,
                    0.64528181
                ],
                "xyz": [
                    3.66161577,
                    1.1628482525687422,
                    3.4514046167870474
                ],
                "label": "Li",
                "properties": {}
            },
            {
                "species": [
                    {
                        "element": "Li",
                        "occu": 1
                    }
                ],
                "abc": [
                    0.58581823,
                    0.23110004,
                    0.35471819
                ],
                "xyz": [
                    -2.220446049250313e-16,
                    2.8391952674312573,
                    2.9662322932129523
                ],
                "label": "Li",
                "properties": {}
            },
            {
                "species": [
                    {
                        "element": "Li",
                        "occu": 1
                    }
                ],
                "abc": [
                    0.87638085,
                    0.23110004,
                    0.64528181
                ],
                "xyz": [
                    3.6616157701452323e-06,
                    5.1648877705252225,
                    2.9662258755760424
                ],
                "label": "Li",
                "properties": {}
            },
            {
                "species": [
                    {
                        "element": "Li",
                        "occu": 1
                    }
                ],
                "abc": [
                    0.12361915,
                    0.76889996,
                    0.35471819
                ],
                "xyz": [
                    3.6616121083842303,
                    -1.1628442505252228,
                    3.4514110344239572
                ],
                "label": "Li",
                "properties": {}
            },
            {
                "species": [
                    {
                        "element": "Li",
                        "occu": 1
                    }
                ],
                "abc": [
                    0.70873763,
                    0.59242778,
                    0.57088527
                ],
                "xyz": [
                    1.6644805265263738,
                    2.7501847769716226,
                    4.686672781103967
                ],
                "label": "Li",
                "properties": {}
            },
            {
                "species": [
                    {
                        "element": "Li",
                        "occu": 1
                    }
                ],
                "abc": [
                    0.29126237,
                    0.86214765,
                    0.88369015
                ],
                "xyz": [
                    5.326096333142532,
                    1.251858703007942,
                    1.7309641930724018
                ],
                "label": "Li",
                "properties": {}
            },
            {
                "species": [
                    {
                        "element": "Li",
                        "occu": 1
                    }
                ],
                "abc": [
                    0.97845649,
                    0.40757222,
                    0.11630985
                ],
                "xyz": [
                    -1.6644768649106034,
                    2.7501807749281024,
                    8.148594621259123
                ],
                "label": "Li",
                "properties": {}
            },
            {
                "species": [
                    {
                        "element": "Li",
                        "occu": 1
                    }
                ],
                "abc": [
                    0.02154351,
                    0.13785235,
                    0.42911473
                ],
                "xyz": [
                    1.997131545241699,
                    1.251862785092333,
                    -1.7309577754354915
                ],
                "label": "Li",
                "properties": {}
            },
            {
                "species": [
                    {
                        "element": "Li",
                        "occu": 1
                    }
                ],
                "abc": [
                    0.29126237,
                    0.40757222,
                    0.42911473
                ],
                "xyz": [
                    1.9971352434736267,
                    1.2518587430283779,
                    1.7309641288960322
                ],
                "label": "Li",
                "properties": {}
            },
            {
                "species": [
                    {
                        "element": "Li",
                        "occu": 1
                    }
                ],
                "abc": [
                    0.70873763,
                    0.13785235,
                    0.11630985
                ],
                "xyz": [
                    -1.6644805631425308,
                    2.750184816992058,
                    4.686672716927598
                ],
                "label": "Li",
                "properties": {}
            },
            {
                "species": [
                    {
                        "element": "Li",
                        "occu": 1
                    }
                ],
                "abc": [
                    0.02154351,
                    0.59242778,
                    0.88369015
                ],
                "xyz": [
                    5.326092634910603,
                    1.2518627450718975,
                    -1.7309577112591228
                ],
                "label": "Li",
                "properties": {}
            },
            {
                "species": [
                    {
                        "element": "Li",
                        "occu": 1
                    }
                ],
                "abc": [
                    0.97845649,
                    0.86214765,
                    0.57088527
                ],
                "xyz": [
                    1.6644842247583016,
                    2.750180734907667,
                    8.14859468543549
                ],
                "label": "Li",
                "properties": {}
            },
            {
                "species": [
                    {
                        "element": "Pb",
                        "occu": 1
                    }
                ],
                "abc": [
                    0.72908381,
                    0.72908381,
                    0.0
                ],
                "xyz": [
                    0.0,
                    0.0,
                    9.357990339078853
                ],
                "label": "Pb",
                "properties": {}
            },
            {
                "species": [
                    {
                        "element": "Pb",
                        "occu": 1
                    }
                ],
                "abc": [
                    0.27091619,
                    0.27091619,
                    0.0
                ],
                "xyz": [
                    0.0,
                    0.0,
                    3.4772834809211455
                ],
                "label": "Pb",
                "properties": {}
            },
            {
                "species": [
                    {
                        "element": "Pb",
                        "occu": 1
                    }
                ],
                "abc": [
                    0.0,
                    0.0,
                    0.0
                ],
                "xyz": [
                    0.0,
                    0.0,
                    0.0
                ],
                "label": "Pb",
                "properties": {}
            },
            {
                "species": [
                    {
                        "element": "O",
                        "occu": 1
                    }
                ],
                "abc": [
                    0.74925635,
                    0.04261255,
                    0.2933562
                ],
                "xyz": [
                    -1.513300393705452,
                    4.00204352,
                    3.1992735036237567
                ],
                "label": "O",
                "properties": {}
            },
            {
                "species": [
                    {
                        "element": "O",
                        "occu": 1
                    }
                ],
                "abc": [
                    0.25074365,
                    0.54409985,
                    0.2933562
                ],
                "xyz": [
                    2.1483153762945486,
                    0.0,
                    3.218363406376243
                ],
                "label": "O",
                "properties": {}
            },
            {
                "species": [
                    {
                        "element": "O",
                        "occu": 1
                    }
                ],
                "abc": [
                    0.25074365,
                    0.95738745,
                    0.7066438
                ],
                "xyz": [
                    5.174916163705452,
                    0.0,
                    3.218363406376243
                ],
                "label": "O",
                "properties": {}
            },
            {
                "species": [
                    {
                        "element": "O",
                        "occu": 1
                    }
                ],
                "abc": [
                    0.74925635,
                    0.45590015,
                    0.7066438
                ],
                "xyz": [
                    1.513300393705452,
                    4.002043520000001,
                    3.1992735036237567
                ],
                "label": "O",
                "properties": {}
            },
            {
                "species": [
                    {
                        "element": "O",
                        "occu": 1
                    }
                ],
                "abc": [
                    0.0,
                    0.70393248,
                    0.70393248
                ],
                "xyz": [
                    5.155060539566419,
                    0.0,
                    0.0
                ],
                "label": "O",
                "properties": {}
            },
            {
                "species": [
                    {
                        "element": "O",
                        "occu": 1
                    }
                ],
                "abc": [
                    0.0,
                    0.29606752,
                    0.29606752
                ],
                "xyz": [
                    2.168171000433581,
                    0.0,
                    0.0
                ],
                "label": "O",
                "properties": {}
            },
            {
                "species": [
                    {
                        "element": "O",
                        "occu": 1
                    }
                ],
                "abc": [
                    0.68597223,
                    0.87181036,
                    0.81416187
                ],
                "xyz": [
                    3.66161577,
                    2.5145789521291646,
                    4.7722877797127765
                ],
                "label": "O",
                "properties": {}
            },
            {
                "species": [
                    {
                        "element": "O",
                        "occu": 1
                    }
                ],
                "abc": [
                    0.31402777,
                    0.12818964,
                    0.18583813
                ],
                "xyz": [
                    1.1102230246251565e-16,
                    1.4874645678708351,
                    1.645349130287225
                ],
                "label": "O",
                "properties": {}
            },
            {
                "species": [
                    {
                        "element": "O",
                        "occu": 1
                    }
                ],
                "abc": [
                    0.9423515,
                    0.12818964,
                    0.81416187
                ],
                "xyz": [
                    3.6616157217395084e-08,
                    6.516622432108729,
                    1.6453490661108559
                ],
                "label": "O",
                "properties": {}
            },
            {
                "species": [
                    {
                        "element": "O",
                        "occu": 1
                    }
                ],
                "abc": [
                    0.0576485,
                    0.87181036,
                    0.18583813
                ],
                "xyz": [
                    3.661615733383843,
                    -2.5145789121087296,
                    4.772287843889144
                ],
                "label": "O",
                "properties": {}
            },
            {
                "species": [
                    {
                        "element": "O",
                        "occu": 1
                    }
                ],
                "abc": [
                    0.41006297,
                    0.62852952,
                    0.78153345
                ],
                "xyz": [
                    3.66161577,
                    2.253418238471488,
                    1.6497115831531657
                ],
                "label": "O",
                "properties": {}
            },
            {
                "species": [
                    {
                        "element": "O",
                        "occu": 1
                    }
                ],
                "abc": [
                    0.58993703,
                    0.37147048,
                    0.21846655
                ],
                "xyz": [
                    0.0,
                    1.748625281528512,
                    4.767925326846833
                ],
                "label": "O",
                "properties": {}
            },
            {
                "species": [
                    {
                        "element": "O",
                        "occu": 1
                    }
                ],
                "abc": [
                    0.15300393,
                    0.37147048,
                    0.78153345
                ],
                "xyz": [
                    3.66161577,
                    2.253418238471488,
                    -1.6497115831531666
                ],
                "label": "O",
                "properties": {}
            },
            {
                "species": [
                    {
                        "element": "O",
                        "occu": 1
                    }
                ],
                "abc": [
                    0.84699607,
                    0.62852952,
                    0.21846655
                ],
                "xyz": [
                    0.0,
                    1.7486252815285122,
                    8.067348493153165
                ],
                "label": "O",
                "properties": {}
            }
        ]
    },
    "spacegroup": {
        "source": "spglib",
        "symbol": "Immm",
        "number": 71,
        "point_group": "mmm",
        "crystal_system": "orthorhombic",
        "hall": "-I 2 2"
    },
    "dielectric": {
        "epsilon_ionic": [
            [
                5.32382552,
                0.0,
                0.0
            ],
            [
                0.0,
                7.37579075,
                -0.0
            ],
            [
                0.0,
                -0.0,
                11.00776507
            ]
        ],
        "epsilon_ionic_avg": 7.902460446666666,
        "epsilon_ionic_eig": [
            5.32382552,
            7.37579075,
            11.00776507
        ],
        "epsilon_electronic": [
            [
                3.78164271,
                0.0,
                0.0
            ],
            [
                0.0,
                3.55247208,
                0.0
            ],
            [
                0.0,
                0.0,
                3.80909721
            ]
        ],
        "epsilon_electronic_avg": 3.7144039999999996,
        "epsilon_electronic_eig": [
            3.78164271,
            3.55247208,
            3.80909721
        ]
    },
    "phonon": {
        "lowest_freq": -0.16808676004133474,
        "frequency": [
            -0.16808676004133474,
            -0.14512713771742897,
            -0.019613188357313863,
            1.4284112431684768,
            1.6235549175927706,
            1.8582203293365356,
            1.884050346540371,
            2.338613998938354,
            2.7329101160439406,
            2.990117106905153,
            3.0295509446804667,
            3.261930491747686,
            3.584879067358023,
            3.631659518688148,
            4.1007068988761874,
            4.439823294783851,
            4.620356479167307,
            5.629179373981144,
            5.7798630516743446,
            6.0202900526895835,
            6.114586903514921,
            6.505954554611458,
            6.754552366525867,
            6.780047331582151,
            6.837383525614511,
            6.972807289036255,
            6.98855287903354,
            7.1698012009105945,
            7.292997430021488,
            7.302032546901604,
            7.328435636377852,
            7.3461309949229845,
            7.798624480152489,
            8.029887601806802,
            8.074601073221448,
            8.10422572562009,
            8.331121713592262,
            8.605893676011926,
            8.634920618716304,
            9.134999921317421,
            9.135005834006204,
            9.335372797152587,
            9.577713348398373,
            9.704358812020361,
            9.719444457231365,
            9.898278216607027,
            9.965237892402666,
            10.326472464894904,
            10.500023500310112,
            10.514442881085404,
            11.111116362879702,
            11.202113754613483,
            11.381808906477032,
            11.742370373235994,
            11.79047825168393,
            12.01886184637584,
            12.063584323750005,
            12.596814177215496,
            12.795053277235205,
            12.799047600343584,
            12.96696467662392,
            13.216527652504762,
            13.3207283934617,
            13.418293487728782,
            13.859765408105986,
            13.896004834074311,
            14.098118374490008,
            14.126160189872222,
            14.321618925664467,
            14.655782035529946,
            14.80391514979828,
            14.956668379629098,
            15.04515073769927,
            15.24659519346616,
            15.252180048878879,
            15.279386255569623,
            15.305820350469515,
            15.411550927927184,
            15.467598400267418,
            15.495831468573789,
            15.597686374378483,
            15.77107442433176,
            15.834732363880315,
            16.08329477395498,
            16.25478369797699,
            16.329560542471622,
            16.45539201637623,
            16.626519919119595,
            16.63753069255874,
            16.854961954801638,
            16.882283542029295,
            17.11997327356161,
            17.2460031387125,
            17.393780207336846,
            17.683404646734036,
            18.30380199264262,
            18.558794153511915,
            19.71716863940142,
            20.12029222865198
        ]
    },
    "born_effective_charge": {
        "avg_abs_trace": 1.6403191919191922,
        "tensors": [
            [
                [
                    1.11939,
                    0.0,
                    -0.0
                ],
                [
                    4e-05,
                    1.21509,
                    0.0
                ],
                [
                    -3e-05,
                    -0.0,
                    1.42006
                ]
            ],
            [
                [
                    1.11948,
                    -0.0,
                    0.0
                ],
                [
                    -4e-05,
                    1.21509,
                    0.0
                ],
                [
                    3e-05,
                    -0.0,
                    1.42006
                ]
            ],
            [
                [
                    1.1035,
                    4e-05,
                    -0.0
                ],
                [
                    0.0,
                    1.09403,
                    -0.0
                ],
                [
                    -0.0,
                    2e-05,
                    1.23373
                ]
            ],
            [
                [
                    1.1035,
                    -4e-05,
                    -0.0
                ],
                [
                    0.0,
                    1.09399,
                    -0.0
                ],
                [
                    -0.0,
                    -2e-05,
                    1.23373
                ]
            ],
            [
                [
                    1.17185,
                    -5e-05,
                    -2e-05
                ],
                [
                    0.0,
                    1.17993,
                    0.09044
                ],
                [
                    -0.0,
                    0.16745,
                    0.78376
                ]
            ],
            [
                [
                    1.17185,
                    5e-05,
                    2e-05
                ],
                [
                    0.0,
                    1.17996,
                    0.09045
                ],
                [
                    -0.0,
                    0.16745,
                    0.78374
                ]
            ],
            [
                [
                    1.17185,
                    -5e-05,
                    2e-05
                ],
                [
                    0.0,
                    1.17993,
                    -0.09044
                ],
                [
                    -0.0,
                    -0.16745,
                    0.78374
                ]
            ],
            [
                [
                    1.17185,
                    5e-05,
                    -2e-05
                ],
                [
                    0.0,
                    1.17996,
                    -0.09045
                ],
                [
                    0.0,
                    -0.16745,
                    0.78376
                ]
            ],
            [
                [
                    0.95141,
                    0.25371,
                    -0.02407
                ],
                [
                    0.33492,
                    0.95581,
                    0.04275
                ],
                [
                    0.12174,
                    0.08478,
                    0.90795
                ]
            ],
            [
                [
                    0.95141,
                    -0.25371,
                    0.02407
                ],
                [
                    -0.33491,
                    0.95583,
                    0.04277
                ],
                [
                    -0.12174,
                    0.08477,
                    0.90793
                ]
            ],
            [
                [
                    0.95142,
                    -0.2537,
                    -0.02403
                ],
                [
                    -0.33492,
                    0.95581,
                    -0.04275
                ],
                [
                    0.12174,
                    -0.08477,
                    0.90793
                ]
            ],
            [
                [
                    0.95142,
                    0.2537,
                    0.02403
                ],
                [
                    0.33491,
                    0.95583,
                    -0.04277
                ],
                [
                    -0.12174,
                    -0.08478,
                    0.90795
                ]
            ],
            [
                [
                    0.95142,
                    0.2537,
                    -0.02403
                ],
                [
                    0.33491,
                    0.95583,
                    0.04277
                ],
                [
                    0.12174,
                    0.08477,
                    0.90793
                ]
            ],
            [
                [
                    0.95142,
                    -0.2537,
                    0.02403
                ],
                [
                    -0.33492,
                    0.95581,
                    0.04275
                ],
                [
                    -0.12174,
                    0.08478,
                    0.90795
                ]
            ],
            [
                [
                    0.95141,
                    -0.25371,
                    -0.02407
                ],
                [
                    -0.33491,
                    0.95583,
                    -0.04277
                ],
                [
                    0.12174,
                    -0.08478,
                    0.90795
                ]
            ],
            [
                [
                    0.95141,
                    0.25371,
                    0.02407
                ],
                [
                    0.33492,
                    0.95581,
                    -0.04275
                ],
                [
                    -0.12174,
                    -0.08477,
                    0.90793
                ]
            ],
            [
                [
                    3.37026,
                    0.0,
                    -0.0001
                ],
                [
                    0.0,
                    3.14899,
                    3e-05
                ],
                [
                    0.0,
                    -0.0,
                    4.01994
                ]
            ],
            [
                [
                    3.37026,
                    0.0,
                    0.0001
                ],
                [
                    0.0,
                    3.14899,
                    -3e-05
                ],
                [
                    -0.0,
                    -0.0,
                    4.01993
                ]
            ],
            [
                [
                    3.51945,
                    0.0,
                    -0.0
                ],
                [
                    0.0,
                    2.50362,
                    -0.0
                ],
                [
                    -0.0,
                    -0.0,
                    4.65913
                ]
            ],
            [
                [
                    -2.41545,
                    -0.0,
                    0.00672
                ],
                [
                    -0.0,
                    -1.68013,
                    4e-05
                ],
                [
                    0.17355,
                    -0.0,
                    -1.57061
                ]
            ],
            [
                [
                    -2.41545,
                    -0.0,
                    -0.00672
                ],
                [
                    -0.0,
                    -1.68013,
                    -4e-05
                ],
                [
                    -0.17368,
                    0.0,
                    -1.57062
                ]
            ],
            [
                [
                    -2.41551,
                    0.0,
                    0.00671
                ],
                [
                    0.0,
                    -1.68013,
                    -4e-05
                ],
                [
                    0.17368,
                    -0.0,
                    -1.57062
                ]
            ],
            [
                [
                    -2.41551,
                    0.0,
                    -0.00671
                ],
                [
                    0.0,
                    -1.68013,
                    4e-05
                ],
                [
                    -0.17355,
                    -0.0,
                    -1.57061
                ]
            ],
            [
                [
                    -2.38333,
                    -0.0,
                    -0.0
                ],
                [
                    -9e-05,
                    -1.64094,
                    0.0
                ],
                [
                    -1e-05,
                    0.0,
                    -1.89434
                ]
            ],
            [
                [
                    -2.38281,
                    -0.0,
                    0.0
                ],
                [
                    9e-05,
                    -1.64094,
                    0.0
                ],
                [
                    1e-05,
                    0.0,
                    -1.89434
                ]
            ],
            [
                [
                    -1.50435,
                    0.00012,
                    8e-05
                ],
                [
                    0.0,
                    -1.84351,
                    -0.16001
                ],
                [
                    -0.0,
                    -0.15217,
                    -2.46739
                ]
            ],
            [
                [
                    -1.50435,
                    -0.00012,
                    -8e-05
                ],
                [
                    0.0,
                    -1.84355,
                    -0.16011
                ],
                [
                    -0.0,
                    -0.15219,
                    -2.46737
                ]
            ],
            [
                [
                    -1.50435,
                    0.00012,
                    -8e-05
                ],
                [
                    0.0,
                    -1.84351,
                    0.16001
                ],
                [
                    0.0,
                    0.15219,
                    -2.46737
                ]
            ],
            [
                [
                    -1.50435,
                    -0.00012,
                    8e-05
                ],
                [
                    -0.0,
                    -1.84355,
                    0.16011
                ],
                [
                    -0.0,
                    0.15217,
                    -2.46739
                ]
            ],
            [
                [
                    -1.63978,
                    0.00011,
                    -0.0
                ],
                [
                    -0.0,
                    -2.1024,
                    -0.38735
                ],
                [
                    0.0,
                    -0.4564,
                    -2.11617
                ]
            ],
            [
                [
                    -1.63978,
                    -0.00011,
                    0.0
                ],
                [
                    0.0,
                    -2.10241,
                    -0.38737
                ],
                [
                    -0.0,
                    -0.45648,
                    -2.11604
                ]
            ],
            [
                [
                    -1.63978,
                    0.00011,
                    0.0
                ],
                [
                    0.0,
                    -2.1024,
                    0.38735
                ],
                [
                    -0.0,
                    0.45648,
                    -2.11604
                ]
            ],
            [
                [
                    -1.63978,
                    -0.00011,
                    -0.0
                ],
                [
                    0.0,
                    -2.10241,
                    0.38737
                ],
                [
                    -0.0,
                    0.4564,
                    -2.11617
                ]
            ]
        ]
    },
    "band_gap": 2.03,
    "is_direct": false,
    "formula": "Rb2Li14Pb3O14"
}