{
    "mp_id": "mp-540634",
    "nelements": 4,
    "nsites": 28,
    "elements": [
        "Ge",
        "O",
        "Ta",
        "Tl"
    ],
    "structure": {
        "@module": "pymatgen.core.structure",
        "@class": "Structure",
        "charge": null,
        "lattice": {
            "matrix": [
                [
                    7.06920824,
                    0.0,
                    0.0
                ],
                [
                    -3.53460362,
                    6.12211393,
                    0.0
                ],
                [
                    0.0,
                    0.0,
                    10.30193306
                ]
            ],
            "a": 7.06920824,
            "b": 7.0692079982426,
            "c": 10.30193306,
            "alpha": 90.0,
            "beta": 90.0,
            "gamma": 119.99999645187087,
            "volume": 445.8521918076084
        },
        "sites": [
            {
                "species": [
                    {
                        "element": "Ta",
                        "occu": 1
                    }
                ],
                "abc": [
                    0.0,
                    0.0,
                    0.0
                ],
                "xyz": [
                    0.0,
                    0.0,
                    0.0
                ],
                "label": "Ta",
                "properties": {}
            },
            {
                "species": [
                    {
                        "element": "Ta",
                        "occu": 1
                    }
                ],
                "abc": [
                    0.0,
                    0.0,
                    0.5
                ],
                "xyz": [
                    0.0,
                    0.0,
                    5.15096653
                ],
                "label": "Ta",
                "properties": {}
            },
            {
                "species": [
                    {
                        "element": "Tl",
                        "occu": 1
                    }
                ],
                "abc": [
                    0.333333,
                    0.666667,
                    0.0
                ],
                "xyz": [
                    -3.201270619701546e-06,
                    4.081411327371311,
                    0.0
                ],
                "label": "Tl",
                "properties": {}
            },
            {
                "species": [
                    {
                        "element": "Tl",
                        "occu": 1
                    }
                ],
                "abc": [
                    0.333333,
                    0.666667,
                    0.5
                ],
                "xyz": [
                    -3.201270619701546e-06,
                    4.081411327371311,
                    5.15096653
                ],
                "label": "Tl",
                "properties": {}
            },
            {
                "species": [
                    {
                        "element": "Ge",
                        "occu": 1
                    }
                ],
                "abc": [
                    0.73998659,
                    0.62392418,
                    0.25
                ],
                "xyz": [
                    3.02579463428397,
                    3.819734913641828,
                    2.575483265
                ],
                "label": "Ge",
                "properties": {}
            },
            {
                "species": [
                    {
                        "element": "Ge",
                        "occu": 1
                    }
                ],
                "abc": [
                    0.88393759,
                    0.26001341,
                    0.25
                ],
                "xyz": [
                    5.329694554639198,
                    1.5918317193478013,
                    2.575483265
                ],
                "label": "Ge",
                "properties": {}
            },
            {
                "species": [
                    {
                        "element": "Ge",
                        "occu": 1
                    }
                ],
                "abc": [
                    0.37607582,
                    0.11606241,
                    0.25
                ],
                "xyz": [
                    2.2483236710768324,
                    0.7105472970103713,
                    2.575483265
                ],
                "label": "Ge",
                "properties": {}
            },
            {
                "species": [
                    {
                        "element": "Ge",
                        "occu": 1
                    }
                ],
                "abc": [
                    0.37607582,
                    0.26001341,
                    0.75
                ],
                "xyz": [
                    1.7395139453742128,
                    1.5918317193478013,
                    7.726449795
                ],
                "label": "Ge",
                "properties": {}
            },
            {
                "species": [
                    {
                        "element": "Ge",
                        "occu": 1
                    }
                ],
                "abc": [
                    0.88393759,
                    0.62392418,
                    0.75
                ],
                "xyz": [
                    4.043414229640209,
                    3.819734913641828,
                    7.726449795
                ],
                "label": "Ge",
                "properties": {}
            },
            {
                "species": [
                    {
                        "element": "Ge",
                        "occu": 1
                    }
                ],
                "abc": [
                    0.73998659,
                    0.11606241,
                    0.75
                ],
                "xyz": [
                    4.820884684985578,
                    0.7105472970103713,
                    7.726449795
                ],
                "label": "Ge",
                "properties": {}
            },
            {
                "species": [
                    {
                        "element": "O",
                        "occu": 1
                    }
                ],
                "abc": [
                    0.93639188,
                    0.53523285,
                    0.25
                ],
                "xyz": [
                    4.727713224812174,
                    3.2767564867786003,
                    2.575483265
                ],
                "label": "O",
                "properties": {}
            },
            {
                "species": [
                    {
                        "element": "O",
                        "occu": 1
                    }
                ],
                "abc": [
                    0.59884098,
                    0.06360812,
                    0.25
                ],
                "xyz": [
                    4.008502099052281,
                    0.38941615751311165,
                    2.575483265
                ],
                "label": "O",
                "properties": {}
            },
            {
                "species": [
                    {
                        "element": "O",
                        "occu": 1
                    }
                ],
                "abc": [
                    0.46476715,
                    0.40115902,
                    0.25
                ],
                "xyz": [
                    1.8675976421736638,
                    2.4559412244871486,
                    2.575483265
                ],
                "label": "O",
                "properties": {}
            },
            {
                "species": [
                    {
                        "element": "O",
                        "occu": 1
                    }
                ],
                "abc": [
                    0.46476715,
                    0.06360812,
                    0.75
                ],
                "xyz": [
                    3.0607062752479215,
                    0.38941615751311165,
                    7.726449795
                ],
                "label": "O",
                "properties": {}
            },
            {
                "species": [
                    {
                        "element": "O",
                        "occu": 1
                    }
                ],
                "abc": [
                    0.59884098,
                    0.53523285,
                    0.75
                ],
                "xyz": [
                    2.341495621112758,
                    3.2767564867786003,
                    7.726449795
                ],
                "label": "O",
                "properties": {}
            },
            {
                "species": [
                    {
                        "element": "O",
                        "occu": 1
                    }
                ],
                "abc": [
                    0.93639188,
                    0.40115902,
                    0.75
                ],
                "xyz": [
                    5.201611069677439,
                    2.4559412244871486,
                    7.726449795
                ],
                "label": "O",
                "properties": {}
            },
            {
                "species": [
                    {
                        "element": "O",
                        "occu": 1
                    }
                ],
                "abc": [
                    0.76237035,
                    0.77469568,
                    0.10887334
                ],
                "xyz": [
                    2.651112605225322,
                    4.742775214038822,
                    1.1216058606986203
                ],
                "label": "O",
                "properties": {}
            },
            {
                "species": [
                    {
                        "element": "O",
                        "occu": 1
                    }
                ],
                "abc": [
                    0.01232534,
                    0.23762965,
                    0.39112666
                ],
                "xyz": [
                    -0.7527962260205314,
                    1.4547957904460245,
                    4.029360669301379
                ],
                "label": "O",
                "properties": {}
            },
            {
                "species": [
                    {
                        "element": "O",
                        "occu": 1
                    }
                ],
                "abc": [
                    0.22530432,
                    0.98767466,
                    0.39112666
                ],
                "xyz": [
                    -1.8983152731666726,
                    6.046656794294014,
                    4.029360669301379
                ],
                "label": "O",
                "properties": {}
            },
            {
                "species": [
                    {
                        "element": "O",
                        "occu": 1
                    }
                ],
                "abc": [
                    0.22530432,
                    0.98767466,
                    0.10887334
                ],
                "xyz": [
                    -1.8983152731666726,
                    6.046656794294014,
                    1.1216058606986203
                ],
                "label": "O",
                "properties": {}
            },
            {
                "species": [
                    {
                        "element": "O",
                        "occu": 1
                    }
                ],
                "abc": [
                    0.01232534,
                    0.23762965,
                    0.10887334
                ],
                "xyz": [
                    -0.7527962260205314,
                    1.4547957904460245,
                    1.1216058606986203
                ],
                "label": "O",
                "properties": {}
            },
            {
                "species": [
                    {
                        "element": "O",
                        "occu": 1
                    }
                ],
                "abc": [
                    0.22530432,
                    0.23762965,
                    0.89112666
                ],
                "xyz": [
                    0.7527965343422638,
                    1.4547957904460245,
                    9.180327199301379
                ],
                "label": "O",
                "properties": {}
            },
            {
                "species": [
                    {
                        "element": "O",
                        "occu": 1
                    }
                ],
                "abc": [
                    0.01232534,
                    0.77469568,
                    0.89112666
                ],
                "xyz": [
                    -2.65111175983756,
                    4.742775214038822,
                    9.180327199301379
                ],
                "label": "O",
                "properties": {}
            },
            {
                "species": [
                    {
                        "element": "O",
                        "occu": 1
                    }
                ],
                "abc": [
                    0.76237035,
                    0.98767466,
                    0.89112666
                ],
                "xyz": [
                    1.8983163315334144,
                    6.046656794294014,
                    9.180327199301379
                ],
                "label": "O",
                "properties": {}
            },
            {
                "species": [
                    {
                        "element": "O",
                        "occu": 1
                    }
                ],
                "abc": [
                    0.01232534,
                    0.77469568,
                    0.60887334
                ],
                "xyz": [
                    -2.65111175983756,
                    4.742775214038822,
                    6.27257239069862
                ],
                "label": "O",
                "properties": {}
            },
            {
                "species": [
                    {
                        "element": "O",
                        "occu": 1
                    }
                ],
                "abc": [
                    0.76237035,
                    0.98767466,
                    0.60887334
                ],
                "xyz": [
                    1.8983163315334144,
                    6.046656794294014,
                    6.27257239069862
                ],
                "label": "O",
                "properties": {}
            },
            {
                "species": [
                    {
                        "element": "O",
                        "occu": 1
                    }
                ],
                "abc": [
                    0.76237035,
                    0.77469568,
                    0.39112666
                ],
                "xyz": [
                    2.651112605225322,
                    4.742775214038822,
                    4.029360669301379
                ],
                "label": "O",
                "properties": {}
            },
            {
                "species": [
                    {
                        "element": "O",
                        "occu": 1
                    }
                ],
                "abc": [
                    0.22530432,
                    0.23762965,
                    0.60887334
                ],
                "xyz": [
                    0.7527965343422638,
                    1.4547957904460245,
                    6.27257239069862
                ],
                "label": "O",
                "properties": {}
            }
        ]
    },
    "spacegroup": {
        "source": "spglib",
        "symbol": "P-6c2",
        "number": 188,
        "point_group": "-6m2",
        "crystal_system": "hexagonal",
        "hall": "P -6c 2"
    },
    "dielectric": {
        "epsilon_ionic": [
            [
                10.31050593,
                0.00220719,
                -0.0
            ],
            [
                0.00220719,
                10.31289165,
                -0.0
            ],
            [
                -0.0,
                -0.0,
                7.72586301
            ]
        ],
        "epsilon_ionic_avg": 9.44975353,
        "epsilon_ionic_eig": [
            10.309189885323512,
            10.314207694676487,
            7.72586301
        ],
        "epsilon_electronic": [
            [
                3.58315761,
                0.0,
                0.0
            ],
            [
                0.0,
                3.58315794,
                0.0
            ],
            [
                0.0,
                0.0,
                3.67178354
            ]
        ],
        "epsilon_electronic_avg": 3.6126996966666667,
        "epsilon_electronic_eig": [
            3.58315761,
            3.58315794,
            3.67178354
        ]
    },
    "phonon": {
        "lowest_freq": -0.13390996798345725,
        "frequency": [
            -0.13390996798345725,
            -0.020206068598181456,
            -0.02020606769102774,
            0.8397898981447995,
            0.8397899359780915,
            0.9032477371822838,
            0.965507263898897,
            1.179281793668938,
            1.1792818485888341,
            1.9043499807474,
            1.9043499999980733,
            2.8086442350386203,
            2.808644326406595,
            2.830744173399288,
            3.2207083886956744,
            3.2207085252868133,
            3.413144865083862,
            3.4131448758246954,
            3.449855320045768,
            3.664274565367181,
            4.097631728134398,
            4.097631757956518,
            4.36545159226403,
            4.365451726628206,
            4.370157126624242,
            4.4296671226160855,
            4.42966714744415,
            5.51616086613726,
            5.614999849538678,
            5.614999893064971,
            6.123255291630482,
            6.123255291630482,
            6.254043563949145,
            6.27464650336406,
            7.083983567259598,
            7.2316297835682635,
            7.350606173230577,
            7.350606206479553,
            7.444631480738116,
            7.444631497152638,
            8.057319480879206,
            8.838350989758883,
            8.976017893417241,
            8.976018070400047,
            9.271933559654794,
            9.271933559654794,
            10.92282153661979,
            10.998244165552562,
            11.176484032130908,
            11.176484032130908,
            11.938118217109553,
            11.9381182785263,
            12.030462946964967,
            12.030462987595179,
            12.365234400495325,
            12.790979606255318,
            12.790979759113121,
            13.001994519964484,
            13.352164462590514,
            14.040399966474855,
            14.879296240738132,
            14.928092079223353,
            16.13671083311,
            16.136711060293965,
            16.1899523918053,
            16.189952618242156,
            21.810091001442046,
            22.904354868329637,
            22.90435502838662,
            23.083853589842995,
            23.083853801592845,
            23.508154739916744,
            23.508154895862713,
            23.541923561558043,
            23.5419238730026,
            24.408597580141045,
            24.448448815338985,
            26.28541980953728,
            26.90660005923192,
            26.906600104648305,
            27.00353780721404,
            27.003537852467392,
            28.193869119025457,
            28.602875270302896
        ]
    },
    "born_effective_charge": {
        "avg_abs_trace": 2.7828516666666663,
        "tensors": [
            [
                [
                    6.14488,
                    -0.00023,
                    -0.00011
                ],
                [
                    -0.0,
                    6.14407,
                    0.0
                ],
                [
                    -0.0,
                    -0.0,
                    7.52152
                ]
            ],
            [
                [
                    6.14488,
                    -0.00023,
                    0.00011
                ],
                [
                    -0.0,
                    6.14407,
                    0.0
                ],
                [
                    -0.0,
                    -0.0,
                    7.52152
                ]
            ],
            [
                [
                    2.00424,
                    0.00109,
                    -1e-05
                ],
                [
                    -0.0,
                    2.00517,
                    0.0
                ],
                [
                    -0.0,
                    -0.0,
                    1.19423
                ]
            ],
            [
                [
                    2.00424,
                    0.00109,
                    1e-05
                ],
                [
                    -0.0,
                    2.00517,
                    0.0
                ],
                [
                    -0.0,
                    -0.0,
                    1.19423
                ]
            ],
            [
                [
                    3.04655,
                    0.08577,
                    0.0
                ],
                [
                    -0.43831,
                    4.26673,
                    0.0
                ],
                [
                    2e-05,
                    -4e-05,
                    3.82897
                ]
            ],
            [
                [
                    4.1139,
                    -0.17837,
                    0.0
                ],
                [
                    -0.70504,
                    3.19927,
                    0.0
                ],
                [
                    -5e-05,
                    0.0,
                    3.82897
                ]
            ],
            [
                [
                    3.80906,
                    0.87798,
                    0.0
                ],
                [
                    0.35271,
                    3.50187,
                    0.0
                ],
                [
                    2e-05,
                    4e-05,
                    3.82897
                ]
            ],
            [
                [
                    4.1155,
                    0.17847,
                    0.0
                ],
                [
                    0.70504,
                    3.19927,
                    0.0
                ],
                [
                    5e-05,
                    0.0,
                    3.82897
                ]
            ],
            [
                [
                    3.04607,
                    -0.0874,
                    0.0
                ],
                [
                    0.43831,
                    4.26673,
                    0.0
                ],
                [
                    -2e-05,
                    -4e-05,
                    3.82897
                ]
            ],
            [
                [
                    3.81093,
                    -0.88051,
                    0.0
                ],
                [
                    -0.35271,
                    3.50187,
                    0.0
                ],
                [
                    -2e-05,
                    4e-05,
                    3.82897
                ]
            ],
            [
                [
                    -2.1593,
                    0.84456,
                    0.0
                ],
                [
                    1.05864,
                    -2.31526,
                    0.0
                ],
                [
                    1e-05,
                    3e-05,
                    -1.10443
                ]
            ],
            [
                [
                    -3.09969,
                    -0.51518,
                    0.0
                ],
                [
                    -0.30027,
                    -1.37387,
                    0.0
                ],
                [
                    2e-05,
                    -3e-05,
                    -1.10443
                ]
            ],
            [
                [
                    -1.45207,
                    -0.64966,
                    0.0
                ],
                [
                    -0.43616,
                    -3.02152,
                    0.0
                ],
                [
                    -3e-05,
                    -0.0,
                    -1.10443
                ]
            ],
            [
                [
                    -3.10102,
                    0.5149,
                    0.0
                ],
                [
                    0.30027,
                    -1.37387,
                    0.0
                ],
                [
                    -2e-05,
                    -3e-05,
                    -1.10443
                ]
            ],
            [
                [
                    -2.15923,
                    -0.84461,
                    0.0
                ],
                [
                    -1.05864,
                    -2.31526,
                    0.0
                ],
                [
                    -1e-05,
                    3e-05,
                    -1.10443
                ]
            ],
            [
                [
                    -1.45262,
                    0.65072,
                    0.0
                ],
                [
                    0.43616,
                    -3.02152,
                    0.0
                ],
                [
                    3e-05,
                    -0.0,
                    -1.10443
                ]
            ],
            [
                [
                    -1.6248,
                    -0.56551,
                    0.19058
                ],
                [
                    -0.52122,
                    -2.51189,
                    1.2814
                ],
                [
                    0.30036,
                    1.49691,
                    -2.81491
                ]
            ],
            [
                [
                    -1.81947,
                    0.63403,
                    -1.01413
                ],
                [
                    0.67815,
                    -2.31607,
                    0.80596
                ],
                [
                    -1.14613,
                    1.00854,
                    -2.81488
                ]
            ],
            [
                [
                    -2.7604,
                    -0.13447,
                    1.20511
                ],
                [
                    -0.09107,
                    -1.37527,
                    0.47541
                ],
                [
                    1.44649,
                    0.48831,
                    -2.81488
                ]
            ],
            [
                [
                    -2.7604,
                    -0.13447,
                    -1.20511
                ],
                [
                    -0.09107,
                    -1.37527,
                    -0.47541
                ],
                [
                    -1.44654,
                    -0.48834,
                    -2.81491
                ]
            ],
            [
                [
                    -1.81947,
                    0.63403,
                    1.01413
                ],
                [
                    0.67815,
                    -2.31607,
                    -0.80596
                ],
                [
                    1.14618,
                    -1.00857,
                    -2.81491
                ]
            ],
            [
                [
                    -1.81974,
                    -0.63348,
                    1.01458
                ],
                [
                    -0.67815,
                    -2.31607,
                    0.80596
                ],
                [
                    1.14613,
                    1.00854,
                    -2.81488
                ]
            ],
            [
                [
                    -1.62386,
                    0.56516,
                    0.19147
                ],
                [
                    0.52122,
                    -2.51189,
                    -1.2814
                ],
                [
                    0.30036,
                    -1.49685,
                    -2.81488
                ]
            ],
            [
                [
                    -2.75987,
                    0.13507,
                    -1.20505
                ],
                [
                    0.09107,
                    -1.37527,
                    0.47541
                ],
                [
                    -1.44649,
                    0.48831,
                    -2.81488
                ]
            ],
            [
                [
                    -1.62386,
                    0.56516,
                    -0.19147
                ],
                [
                    0.52122,
                    -2.51189,
                    1.2814
                ],
                [
                    -0.30036,
                    1.49691,
                    -2.81491
                ]
            ],
            [
                [
                    -2.75987,
                    0.13507,
                    1.20505
                ],
                [
                    0.09107,
                    -1.37527,
                    -0.47541
                ],
                [
                    1.44654,
                    -0.48834,
                    -2.81491
                ]
            ],
            [
                [
                    -1.6248,
                    -0.56551,
                    -0.19058
                ],
                [
                    -0.52122,
                    -2.51189,
                    -1.2814
                ],
                [
                    -0.30036,
                    -1.49685,
                    -2.81488
                ]
            ],
            [
                [
                    -1.81974,
                    -0.63348,
                    -1.01458
                ],
                [
                    -0.67815,
                    -2.31607,
                    -0.80596
                ],
                [
                    -1.14618,
                    -1.00857,
                    -2.81491
                ]
            ]
        ]
    },
    "band_gap": 3.5292,
    "is_direct": false,
    "formula": "TaTl(GeO3)3"
}