{
    "mp_id": "mp-555018",
    "nelements": 4,
    "nsites": 12,
    "elements": [
        "Au",
        "Na",
        "O",
        "Rb"
    ],
    "structure": {
        "@module": "pymatgen.core.structure",
        "@class": "Structure",
        "charge": null,
        "lattice": {
            "matrix": [
                [
                    5.56768161,
                    0.0,
                    0.0
                ],
                [
                    0.0,
                    9.93712154,
                    0.0
                ],
                [
                    0.0,
                    0.0,
                    3.99670698
                ]
            ],
            "a": 5.56768161,
            "b": 9.93712154,
            "c": 3.99670698,
            "alpha": 90.0,
            "beta": 90.0,
            "gamma": 90.0,
            "volume": 221.12472339371877
        },
        "sites": [
            {
                "species": [
                    {
                        "element": "Rb",
                        "occu": 1
                    }
                ],
                "abc": [
                    0.5,
                    0.0,
                    0.5
                ],
                "xyz": [
                    2.783840805,
                    0.0,
                    1.99835349
                ],
                "label": "Rb",
                "properties": {}
            },
            {
                "species": [
                    {
                        "element": "Rb",
                        "occu": 1
                    }
                ],
                "abc": [
                    0.0,
                    0.5,
                    0.0
                ],
                "xyz": [
                    0.0,
                    4.96856077,
                    0.0
                ],
                "label": "Rb",
                "properties": {}
            },
            {
                "species": [
                    {
                        "element": "Na",
                        "occu": 1
                    }
                ],
                "abc": [
                    0.06378795,
                    0.22591878,
                    0.5
                ],
                "xyz": [
                    0.3551509961545995,
                    2.2449823750285214,
                    1.99835349
                ],
                "label": "Na",
                "properties": {}
            },
            {
                "species": [
                    {
                        "element": "Na",
                        "occu": 1
                    }
                ],
                "abc": [
                    0.56378795,
                    0.27408122,
                    0.0
                ],
                "xyz": [
                    3.1389918011546,
                    2.723578394971479,
                    0.0
                ],
                "label": "Na",
                "properties": {}
            },
            {
                "species": [
                    {
                        "element": "Na",
                        "occu": 1
                    }
                ],
                "abc": [
                    0.93621205,
                    0.77408122,
                    0.5
                ],
                "xyz": [
                    5.2125306138454,
                    7.692139164971478,
                    1.99835349
                ],
                "label": "Na",
                "properties": {}
            },
            {
                "species": [
                    {
                        "element": "Na",
                        "occu": 1
                    }
                ],
                "abc": [
                    0.43621205,
                    0.72591878,
                    0.0
                ],
                "xyz": [
                    2.4286898088454008,
                    7.213543145028521,
                    0.0
                ],
                "label": "Na",
                "properties": {}
            },
            {
                "species": [
                    {
                        "element": "Au",
                        "occu": 1
                    }
                ],
                "abc": [
                    0.0,
                    0.0,
                    0.0
                ],
                "xyz": [
                    0.0,
                    0.0,
                    0.0
                ],
                "label": "Au",
                "properties": {}
            },
            {
                "species": [
                    {
                        "element": "Au",
                        "occu": 1
                    }
                ],
                "abc": [
                    0.5,
                    0.5,
                    0.5
                ],
                "xyz": [
                    2.783840805,
                    4.96856077,
                    1.99835349
                ],
                "label": "Au",
                "properties": {}
            },
            {
                "species": [
                    {
                        "element": "O",
                        "occu": 1
                    }
                ],
                "abc": [
                    0.72424486,
                    0.34313965,
                    0.5
                ],
                "xyz": [
                    4.0323647881590245,
                    3.409820407243061,
                    1.99835349
                ],
                "label": "O",
                "properties": {}
            },
            {
                "species": [
                    {
                        "element": "O",
                        "occu": 1
                    }
                ],
                "abc": [
                    0.27575514,
                    0.65686035,
                    0.5
                ],
                "xyz": [
                    1.5353168218409754,
                    6.527301132756938,
                    1.99835349
                ],
                "label": "O",
                "properties": {}
            },
            {
                "species": [
                    {
                        "element": "O",
                        "occu": 1
                    }
                ],
                "abc": [
                    0.77575514,
                    0.84313965,
                    0.0
                ],
                "xyz": [
                    4.319157626840975,
                    8.37838117724306,
                    0.0
                ],
                "label": "O",
                "properties": {}
            },
            {
                "species": [
                    {
                        "element": "O",
                        "occu": 1
                    }
                ],
                "abc": [
                    0.22424486,
                    0.15686035,
                    0.0
                ],
                "xyz": [
                    1.2485239831590247,
                    1.558740362756939,
                    0.0
                ],
                "label": "O",
                "properties": {}
            }
        ]
    },
    "spacegroup": {
        "source": "spglib",
        "symbol": "Pnnm",
        "number": 58,
        "point_group": "mmm",
        "crystal_system": "orthorhombic",
        "hall": "-P 2 2n"
    },
    "dielectric": {
        "epsilon_ionic": [
            [
                5.0469083,
                0.0,
                -0.0
            ],
            [
                0.0,
                12.34335877,
                -0.0
            ],
            [
                -0.0,
                -0.0,
                2.47176154
            ]
        ],
        "epsilon_ionic_avg": 6.620676203333333,
        "epsilon_ionic_eig": [
            5.0469083,
            12.34335877,
            2.47176154
        ],
        "epsilon_electronic": [
            [
                3.50539923,
                0.0,
                0.0
            ],
            [
                -0.0,
                3.67732001,
                0.0
            ],
            [
                0.0,
                0.0,
                3.35567982
            ]
        ],
        "epsilon_electronic_avg": 3.5127996866666664,
        "epsilon_electronic_eig": [
            3.50539923,
            3.67732001,
            3.35567982
        ]
    },
    "phonon": {
        "lowest_freq": -0.08735875281214979,
        "frequency": [
            -0.08735875281214979,
            -0.02212783556596898,
            -0.0031205081144359405,
            1.1741183702934945,
            1.5800504240480686,
            1.7053371136393027,
            1.8149652283615885,
            2.3825462552662655,
            2.473218343341278,
            2.5553167729729123,
            2.9826493782310584,
            2.988896155392708,
            3.0299253246365976,
            3.221055891961273,
            3.9959739030047006,
            4.587266630243544,
            4.632231407538556,
            4.742045975550144,
            4.77843129275568,
            4.931802758402357,
            5.419896706783296,
            5.540435611992155,
            6.394845627900592,
            7.232859109823266,
            7.706948880695174,
            8.261241480019402,
            8.40468808446497,
            8.749733481269416,
            9.254086498820824,
            9.259253698300906,
            10.063860420672697,
            10.08643492360855,
            16.494416379977384,
            17.494270001986205,
            17.60172876584582,
            18.15833795482791
        ]
    },
    "born_effective_charge": {
        "avg_abs_trace": 1.1078361111111112,
        "tensors": [
            [
                [
                    1.4043,
                    -0.32824,
                    0.0
                ],
                [
                    0.01478,
                    0.94627,
                    0.0
                ],
                [
                    0.0,
                    0.0,
                    1.2406
                ]
            ],
            [
                [
                    1.4043,
                    0.32824,
                    0.0
                ],
                [
                    -0.01478,
                    0.94627,
                    0.0
                ],
                [
                    0.0,
                    0.0,
                    1.2406
                ]
            ],
            [
                [
                    0.95248,
                    0.00103,
                    0.0
                ],
                [
                    -0.10146,
                    1.2069,
                    0.0
                ],
                [
                    -5e-05,
                    5e-05,
                    0.98592
                ]
            ],
            [
                [
                    0.95248,
                    -0.00103,
                    0.0
                ],
                [
                    0.1015,
                    1.20692,
                    0.0
                ],
                [
                    -5e-05,
                    -5e-05,
                    0.98592
                ]
            ],
            [
                [
                    0.95242,
                    0.00103,
                    0.0
                ],
                [
                    -0.1015,
                    1.20692,
                    0.0
                ],
                [
                    5e-05,
                    -5e-05,
                    0.98592
                ]
            ],
            [
                [
                    0.95242,
                    -0.00103,
                    0.0
                ],
                [
                    0.10146,
                    1.2069,
                    0.0
                ],
                [
                    5e-05,
                    5e-05,
                    0.98592
                ]
            ],
            [
                [
                    0.22978,
                    1.50385,
                    0.0
                ],
                [
                    1.54311,
                    0.87691,
                    0.0
                ],
                [
                    0.0,
                    0.0,
                    -1.0179
                ]
            ],
            [
                [
                    0.22978,
                    -1.50385,
                    0.0
                ],
                [
                    -1.54311,
                    0.87691,
                    0.0
                ],
                [
                    0.0,
                    0.0,
                    -1.0179
                ]
            ],
            [
                [
                    -1.76943,
                    0.608,
                    0.0
                ],
                [
                    0.78186,
                    -2.1185,
                    0.0
                ],
                [
                    7e-05,
                    -0.00014,
                    -1.09727
                ]
            ],
            [
                [
                    -1.76956,
                    0.60808,
                    0.0
                ],
                [
                    0.78186,
                    -2.1185,
                    0.0
                ],
                [
                    -7e-05,
                    0.00014,
                    -1.09727
                ]
            ],
            [
                [
                    -1.76956,
                    -0.60808,
                    0.0
                ],
                [
                    -0.78186,
                    -2.1185,
                    0.0
                ],
                [
                    -7e-05,
                    -0.00014,
                    -1.09727
                ]
            ],
            [
                [
                    -1.76943,
                    -0.608,
                    0.0
                ],
                [
                    -0.78186,
                    -2.1185,
                    0.0
                ],
                [
                    7e-05,
                    0.00014,
                    -1.09727
                ]
            ]
        ]
    },
    "band_gap": 2.3233,
    "is_direct": false,
    "formula": "RbNa2AuO2"
}