{
    "mp_id": "mp-558054",
    "nelements": 4,
    "nsites": 24,
    "elements": [
        "Li",
        "O",
        "Sr",
        "Ta"
    ],
    "structure": {
        "@module": "pymatgen.core.structure",
        "@class": "Structure",
        "charge": null,
        "lattice": {
            "matrix": [
                [
                    9.05520857,
                    -2.80461358,
                    0.0
                ],
                [
                    9.05520857,
                    2.80461358,
                    0.0
                ],
                [
                    0.0,
                    0.0,
                    5.59812526
                ]
            ],
            "a": 9.479591741173342,
            "b": 9.479591741173342,
            "c": 5.59812526,
            "alpha": 90.0,
            "beta": 90.0,
            "gamma": 34.417994528006574,
            "volume": 284.3440192143674
        },
        "sites": [
            {
                "species": [
                    {
                        "element": "Sr",
                        "occu": 1
                    }
                ],
                "abc": [
                    0.74529203,
                    0.25470797,
                    0.75
                ],
                "xyz": [
                    9.05520857,
                    -1.3758987168075345,
                    4.198593945
                ],
                "label": "Sr",
                "properties": {}
            },
            {
                "species": [
                    {
                        "element": "Sr",
                        "occu": 1
                    }
                ],
                "abc": [
                    0.25470797,
                    0.74529203,
                    0.25
                ],
                "xyz": [
                    9.05520857,
                    1.3758987168075345,
                    1.399531315
                ],
                "label": "Sr",
                "properties": {}
            },
            {
                "species": [
                    {
                        "element": "Li",
                        "occu": 1
                    }
                ],
                "abc": [
                    0.25992633,
                    0.25992633,
                    0.0
                ],
                "xyz": [
                    4.707374261969296,
                    0.0,
                    0.0
                ],
                "label": "Li",
                "properties": {}
            },
            {
                "species": [
                    {
                        "element": "Li",
                        "occu": 1
                    }
                ],
                "abc": [
                    0.74007367,
                    0.74007367,
                    0.0
                ],
                "xyz": [
                    13.403042878030703,
                    0.0,
                    0.0
                ],
                "label": "Li",
                "properties": {}
            },
            {
                "species": [
                    {
                        "element": "Li",
                        "occu": 1
                    }
                ],
                "abc": [
                    0.74007367,
                    0.74007367,
                    0.5
                ],
                "xyz": [
                    13.403042878030703,
                    0.0,
                    2.79906263
                ],
                "label": "Li",
                "properties": {}
            },
            {
                "species": [
                    {
                        "element": "Li",
                        "occu": 1
                    }
                ],
                "abc": [
                    0.25992633,
                    0.25992633,
                    0.5
                ],
                "xyz": [
                    4.707374261969296,
                    0.0,
                    2.79906263
                ],
                "label": "Li",
                "properties": {}
            },
            {
                "species": [
                    {
                        "element": "Ta",
                        "occu": 1
                    }
                ],
                "abc": [
                    0.86786384,
                    0.3611837,
                    0.25
                ],
                "xyz": [
                    11.129281817145419,
                    -1.4210420013603011,
                    1.399531315
                ],
                "label": "Ta",
                "properties": {}
            },
            {
                "species": [
                    {
                        "element": "Ta",
                        "occu": 1
                    }
                ],
                "abc": [
                    0.6388163,
                    0.13213616,
                    0.25
                ],
                "xyz": [
                    6.981135322854582,
                    -1.4210420013603011,
                    1.399531315
                ],
                "label": "Ta",
                "properties": {}
            },
            {
                "species": [
                    {
                        "element": "Ta",
                        "occu": 1
                    }
                ],
                "abc": [
                    0.3611837,
                    0.86786384,
                    0.75
                ],
                "xyz": [
                    11.129281817145419,
                    1.4210420013603011,
                    4.198593945
                ],
                "label": "Ta",
                "properties": {}
            },
            {
                "species": [
                    {
                        "element": "Ta",
                        "occu": 1
                    }
                ],
                "abc": [
                    0.13213616,
                    0.6388163,
                    0.75
                ],
                "xyz": [
                    6.981135322854582,
                    1.4210420013603011,
                    4.198593945
                ],
                "label": "Ta",
                "properties": {}
            },
            {
                "species": [
                    {
                        "element": "O",
                        "occu": 1
                    }
                ],
                "abc": [
                    0.09376116,
                    0.09376116,
                    0.5
                ],
                "xyz": [
                    1.6980537191302822,
                    0.0,
                    2.79906263
                ],
                "label": "O",
                "properties": {}
            },
            {
                "species": [
                    {
                        "element": "O",
                        "occu": 1
                    }
                ],
                "abc": [
                    0.99891965,
                    0.56516513,
                    0.75
                ],
                "xyz": [
                    14.163113904062563,
                    -1.2165138171783816,
                    4.198593945
                ],
                "label": "O",
                "properties": {}
            },
            {
                "species": [
                    {
                        "element": "O",
                        "occu": 1
                    }
                ],
                "abc": [
                    0.38461253,
                    0.38461253,
                    0.5
                ],
                "xyz": [
                    6.965493355570764,
                    0.0,
                    2.79906263
                ],
                "label": "O",
                "properties": {}
            },
            {
                "species": [
                    {
                        "element": "O",
                        "occu": 1
                    }
                ],
                "abc": [
                    0.09376116,
                    0.09376116,
                    0.0
                ],
                "xyz": [
                    1.6980537191302822,
                    0.0,
                    0.0
                ],
                "label": "O",
                "properties": {}
            },
            {
                "species": [
                    {
                        "element": "O",
                        "occu": 1
                    }
                ],
                "abc": [
                    0.43483487,
                    0.00108035,
                    0.75
                ],
                "xyz": [
                    3.9473032359374347,
                    -1.2165138171783814,
                    4.198593945
                ],
                "label": "O",
                "properties": {}
            },
            {
                "species": [
                    {
                        "element": "O",
                        "occu": 1
                    }
                ],
                "abc": [
                    0.90623884,
                    0.90623884,
                    0.5
                ],
                "xyz": [
                    16.412363420869717,
                    0.0,
                    2.79906263
                ],
                "label": "O",
                "properties": {}
            },
            {
                "species": [
                    {
                        "element": "O",
                        "occu": 1
                    }
                ],
                "abc": [
                    0.38461253,
                    0.38461253,
                    0.0
                ],
                "xyz": [
                    6.965493355570764,
                    0.0,
                    0.0
                ],
                "label": "O",
                "properties": {}
            },
            {
                "species": [
                    {
                        "element": "O",
                        "occu": 1
                    }
                ],
                "abc": [
                    0.61538747,
                    0.61538747,
                    0.0
                ],
                "xyz": [
                    11.144923784429237,
                    0.0,
                    0.0
                ],
                "label": "O",
                "properties": {}
            },
            {
                "species": [
                    {
                        "element": "O",
                        "occu": 1
                    }
                ],
                "abc": [
                    0.90623884,
                    0.90623884,
                    0.0
                ],
                "xyz": [
                    16.412363420869717,
                    0.0,
                    0.0
                ],
                "label": "O",
                "properties": {}
            },
            {
                "species": [
                    {
                        "element": "O",
                        "occu": 1
                    }
                ],
                "abc": [
                    0.56516513,
                    0.99891965,
                    0.25
                ],
                "xyz": [
                    14.163113904062563,
                    1.2165138171783816,
                    1.399531315
                ],
                "label": "O",
                "properties": {}
            },
            {
                "species": [
                    {
                        "element": "O",
                        "occu": 1
                    }
                ],
                "abc": [
                    0.70417673,
                    0.29582327,
                    0.25
                ],
                "xyz": [
                    9.055208570000001,
                    -1.1452736593559867,
                    1.399531315
                ],
                "label": "O",
                "properties": {}
            },
            {
                "species": [
                    {
                        "element": "O",
                        "occu": 1
                    }
                ],
                "abc": [
                    0.00108035,
                    0.43483487,
                    0.25
                ],
                "xyz": [
                    3.9473032359374347,
                    1.2165138171783814,
                    1.399531315
                ],
                "label": "O",
                "properties": {}
            },
            {
                "species": [
                    {
                        "element": "O",
                        "occu": 1
                    }
                ],
                "abc": [
                    0.61538747,
                    0.61538747,
                    0.5
                ],
                "xyz": [
                    11.144923784429237,
                    0.0,
                    2.79906263
                ],
                "label": "O",
                "properties": {}
            },
            {
                "species": [
                    {
                        "element": "O",
                        "occu": 1
                    }
                ],
                "abc": [
                    0.29582327,
                    0.70417673,
                    0.75
                ],
                "xyz": [
                    9.055208570000001,
                    1.1452736593559867,
                    4.198593945
                ],
                "label": "O",
                "properties": {}
            }
        ]
    },
    "spacegroup": {
        "source": "spglib",
        "symbol": "Cmcm",
        "number": 63,
        "point_group": "mmm",
        "crystal_system": "orthorhombic",
        "hall": "-C 2c 2"
    },
    "dielectric": {
        "epsilon_ionic": [
            [
                14.63003149,
                2e-08,
                -1e-08
            ],
            [
                2e-08,
                21.30470246,
                -3e-08
            ],
            [
                -1e-08,
                -3e-08,
                30.30680486
            ]
        ],
        "epsilon_ionic_avg": 22.08051293666667,
        "epsilon_ionic_eig": [
            14.63003149,
            21.30470246,
            30.30680486
        ],
        "epsilon_electronic": [
            [
                4.19986584,
                0.0,
                0.0
            ],
            [
                0.0,
                4.47341209,
                0.0
            ],
            [
                0.0,
                0.0,
                4.45404884
            ]
        ],
        "epsilon_electronic_avg": 4.37577559,
        "epsilon_electronic_eig": [
            4.19986584,
            4.47341209,
            4.45404884
        ]
    },
    "phonon": {
        "lowest_freq": -0.05671584795464676,
        "frequency": [
            -0.05671584795464676,
            -0.02176206434807828,
            -0.014633914781211113,
            2.2123209249755704,
            2.3172755134006793,
            2.437947419238589,
            2.980463565187991,
            3.032845381755243,
            3.621021647379382,
            3.688199893946979,
            3.924364549292747,
            3.9244826819549425,
            4.050585446879929,
            4.178566829324297,
            4.237268495758144,
            4.3730764351826705,
            4.6178375942718235,
            4.84289859807581,
            5.341794612845577,
            5.552409314815915,
            5.686105825222803,
            5.967810641651338,
            6.669016051945608,
            6.707172521082427,
            7.046447932113789,
            7.191769739711969,
            7.231184811794741,
            7.350958504189835,
            7.438071892197645,
            7.492912207133559,
            7.538206376076134,
            7.682911377513161,
            7.694737051056999,
            8.061500954586517,
            8.224674090529032,
            8.313231442644021,
            8.546478960882757,
            8.834048513432833,
            8.883870476339037,
            9.467945594007922,
            9.681504174692526,
            9.76981220432947,
            10.621261846694825,
            10.831917742164633,
            11.313928752839407,
            11.388661499872002,
            11.469771617170927,
            11.55484839383941,
            11.83119552205243,
            12.265790019499304,
            12.421689967813629,
            12.737628542992297,
            12.816894365020492,
            12.988181586432269,
            13.01062442413512,
            13.051180127109806,
            13.756329994169688,
            13.91138629555721,
            15.613158441594827,
            17.088188403654154,
            17.935778681118155,
            18.2209655789944,
            18.42262123804459,
            18.73170829197891,
            18.879430927744405,
            19.046006336883366,
            20.294415233321818,
            20.460133968238196,
            22.600269505241318,
            22.623091873317012,
            26.595912141621806,
            26.65555358676159
        ]
    },
    "born_effective_charge": {
        "avg_abs_trace": 3.103514166666667,
        "tensors": [
            [
                [
                    2.09124,
                    4e-05,
                    0.0
                ],
                [
                    -0.0,
                    2.56481,
                    0.0
                ],
                [
                    0.0,
                    0.00012,
                    2.49823
                ]
            ],
            [
                [
                    2.09124,
                    -4e-05,
                    0.0
                ],
                [
                    -0.0,
                    2.56465,
                    0.0
                ],
                [
                    0.0,
                    -0.00012,
                    2.49823
                ]
            ],
            [
                [
                    1.35834,
                    -0.0,
                    0.0
                ],
                [
                    1e-05,
                    1.00646,
                    0.05933
                ],
                [
                    -1e-05,
                    -0.02005,
                    1.00981
                ]
            ],
            [
                [
                    1.35834,
                    -0.0,
                    0.0
                ],
                [
                    -1e-05,
                    1.00646,
                    0.05933
                ],
                [
                    1e-05,
                    -0.02005,
                    1.00981
                ]
            ],
            [
                [
                    1.35834,
                    -0.0,
                    0.0
                ],
                [
                    -1e-05,
                    1.00646,
                    -0.05933
                ],
                [
                    1e-05,
                    0.02005,
                    1.00981
                ]
            ],
            [
                [
                    1.35834,
                    -0.0,
                    0.0
                ],
                [
                    1e-05,
                    1.00646,
                    -0.05933
                ],
                [
                    -1e-05,
                    0.02005,
                    1.00981
                ]
            ],
            [
                [
                    6.22006,
                    -0.11363,
                    0.0
                ],
                [
                    0.47049,
                    7.40259,
                    -0.0
                ],
                [
                    0.00011,
                    -6e-05,
                    7.35728
                ]
            ],
            [
                [
                    6.22012,
                    0.11356,
                    0.0
                ],
                [
                    -0.47049,
                    7.40259,
                    -0.0
                ],
                [
                    -0.00011,
                    -6e-05,
                    7.35728
                ]
            ],
            [
                [
                    6.22006,
                    0.11363,
                    0.0
                ],
                [
                    -0.47059,
                    7.40249,
                    -0.0
                ],
                [
                    0.00011,
                    6e-05,
                    7.35728
                ]
            ],
            [
                [
                    6.22012,
                    -0.11356,
                    0.0
                ],
                [
                    0.47059,
                    7.40249,
                    -0.0
                ],
                [
                    -0.00011,
                    6e-05,
                    7.35728
                ]
            ],
            [
                [
                    -1.41466,
                    -0.0,
                    0.0
                ],
                [
                    -0.00013,
                    -3.59968,
                    1.91409
                ],
                [
                    0.00014,
                    1.84013,
                    -3.53764
                ]
            ],
            [
                [
                    -3.65649,
                    0.19067,
                    0.0
                ],
                [
                    0.25723,
                    -1.49747,
                    0.0
                ],
                [
                    -3e-05,
                    -0.0,
                    -1.47682
                ]
            ],
            [
                [
                    -1.43204,
                    -0.0,
                    0.0
                ],
                [
                    -7e-05,
                    -3.5623,
                    -2.00268
                ],
                [
                    -2e-05,
                    -2.16166,
                    -3.62021
                ]
            ],
            [
                [
                    -1.41466,
                    -0.0,
                    0.0
                ],
                [
                    -0.00013,
                    -3.59968,
                    -1.91409
                ],
                [
                    0.00014,
                    -1.84013,
                    -3.53764
                ]
            ],
            [
                [
                    -3.65666,
                    -0.1906,
                    0.0
                ],
                [
                    -0.25723,
                    -1.49747,
                    0.0
                ],
                [
                    3e-05,
                    -0.0,
                    -1.47682
                ]
            ],
            [
                [
                    -1.41461,
                    -0.0,
                    0.0
                ],
                [
                    0.00013,
                    -3.59968,
                    1.91409
                ],
                [
                    -0.00014,
                    1.84013,
                    -3.53764
                ]
            ],
            [
                [
                    -1.43204,
                    -0.0,
                    0.0
                ],
                [
                    -7e-05,
                    -3.5623,
                    2.00268
                ],
                [
                    -2e-05,
                    2.16166,
                    -3.62021
                ]
            ],
            [
                [
                    -1.43195,
                    -0.0,
                    0.0
                ],
                [
                    7e-05,
                    -3.5623,
                    2.00268
                ],
                [
                    2e-05,
                    2.16166,
                    -3.62021
                ]
            ],
            [
                [
                    -1.41461,
                    -0.0,
                    0.0
                ],
                [
                    0.00013,
                    -3.59968,
                    -1.91409
                ],
                [
                    -0.00014,
                    -1.84013,
                    -3.53764
                ]
            ],
            [
                [
                    -3.65649,
                    -0.19067,
                    0.0
                ],
                [
                    -0.25729,
                    -1.49757,
                    0.0
                ],
                [
                    -3e-05,
                    0.0,
                    -1.47682
                ]
            ],
            [
                [
                    -4.24169,
                    -7e-05,
                    0.0
                ],
                [
                    -0.0,
                    -2.06374,
                    0.0
                ],
                [
                    0.0,
                    -0.00015,
                    -1.9631
                ]
            ],
            [
                [
                    -3.65666,
                    0.1906,
                    0.0
                ],
                [
                    0.25729,
                    -1.49757,
                    0.0
                ],
                [
                    3e-05,
                    0.0,
                    -1.47682
                ]
            ],
            [
                [
                    -1.43195,
                    -0.0,
                    0.0
                ],
                [
                    7e-05,
                    -3.5623,
                    -2.00268
                ],
                [
                    2e-05,
                    -2.16166,
                    -3.62021
                ]
            ],
            [
                [
                    -4.24169,
                    7e-05,
                    0.0
                ],
                [
                    -0.0,
                    -2.06372,
                    0.0
                ],
                [
                    0.0,
                    0.00015,
                    -1.9631
                ]
            ]
        ]
    },
    "band_gap": 2.7835,
    "is_direct": false,
    "formula": "SrLi2Ta2O7"
}