{
    "mp_id": "mp-5784",
    "nelements": 3,
    "nsites": 12,
    "elements": [
        "Ge",
        "Na",
        "O"
    ],
    "structure": {
        "@module": "pymatgen.core.structure",
        "@class": "Structure",
        "charge": null,
        "lattice": {
            "matrix": [
                [
                    5.42662372,
                    -3.11314589,
                    0.0
                ],
                [
                    5.42662372,
                    3.11314589,
                    0.0
                ],
                [
                    0.0,
                    0.0,
                    4.87572965
                ]
            ],
            "a": 6.2561907204696485,
            "b": 6.2561907204696485,
            "c": 4.87572965,
            "alpha": 90.0,
            "beta": 90.0,
            "gamma": 59.684068551267956,
            "volume": 164.7398986987541
        },
        "sites": [
            {
                "species": [
                    {
                        "element": "Na",
                        "occu": 1
                    }
                ],
                "abc": [
                    0.82905148,
                    0.50654133,
                    0.00134954
                ],
                "xyz": [
                    7.247759623007453,
                    -1.0040211479557832,
                    0.006579992191861
                ],
                "label": "Na",
                "properties": {}
            },
            {
                "species": [
                    {
                        "element": "Na",
                        "occu": 1
                    }
                ],
                "abc": [
                    0.49345867,
                    0.17094852,
                    0.00134954
                ],
                "xyz": [
                    3.6054878169925466,
                    -1.0040211479557835,
                    0.006579992191861
                ],
                "label": "Na",
                "properties": {}
            },
            {
                "species": [
                    {
                        "element": "Na",
                        "occu": 1
                    }
                ],
                "abc": [
                    0.17094852,
                    0.49345867,
                    0.50134954
                ],
                "xyz": [
                    3.6054878169925466,
                    1.0040211479557835,
                    2.444444817191861
                ],
                "label": "Na",
                "properties": {}
            },
            {
                "species": [
                    {
                        "element": "Na",
                        "occu": 1
                    }
                ],
                "abc": [
                    0.50654133,
                    0.82905148,
                    0.50134954
                ],
                "xyz": [
                    7.247759623007453,
                    1.0040211479557832,
                    2.444444817191861
                ],
                "label": "Na",
                "properties": {}
            },
            {
                "species": [
                    {
                        "element": "Ge",
                        "occu": 1
                    }
                ],
                "abc": [
                    0.16638478,
                    0.83361522,
                    0.96624911
                ],
                "xyz": [
                    5.42662372,
                    2.077185701968892,
                    4.711169434913112
                ],
                "label": "Ge",
                "properties": {}
            },
            {
                "species": [
                    {
                        "element": "Ge",
                        "occu": 1
                    }
                ],
                "abc": [
                    0.83361522,
                    0.16638478,
                    0.46624911
                ],
                "xyz": [
                    5.42662372,
                    -2.077185701968892,
                    2.2733046099131116
                ],
                "label": "Ge",
                "properties": {}
            },
            {
                "species": [
                    {
                        "element": "O",
                        "occu": 1
                    }
                ],
                "abc": [
                    0.88888819,
                    0.11111181,
                    0.09213195
                ],
                "xyz": [
                    5.42662372,
                    -2.421331340736078,
                    0.44921048032731753
                ],
                "label": "O",
                "properties": {}
            },
            {
                "species": [
                    {
                        "element": "O",
                        "occu": 1
                    }
                ],
                "abc": [
                    0.11111181,
                    0.88888819,
                    0.59213195
                ],
                "xyz": [
                    5.42662372,
                    2.421331340736078,
                    2.8870753053273175
                ],
                "label": "O",
                "properties": {}
            },
            {
                "species": [
                    {
                        "element": "O",
                        "occu": 1
                    }
                ],
                "abc": [
                    0.16011088,
                    0.56093748,
                    0.02716043
                ],
                "xyz": [
                    3.912858133643099,
                    1.247831682392674,
                    0.1324269138577495
                ],
                "label": "O",
                "properties": {}
            },
            {
                "species": [
                    {
                        "element": "O",
                        "occu": 1
                    }
                ],
                "abc": [
                    0.83988912,
                    0.43906252,
                    0.52716043
                ],
                "xyz": [
                    6.940389306356902,
                    -1.2478316823926743,
                    2.5702917388577498
                ],
                "label": "O",
                "properties": {}
            },
            {
                "species": [
                    {
                        "element": "O",
                        "occu": 1
                    }
                ],
                "abc": [
                    0.43906252,
                    0.83988912,
                    0.02716043
                ],
                "xyz": [
                    6.940389306356902,
                    1.2478316823926743,
                    0.1324269138577495
                ],
                "label": "O",
                "properties": {}
            },
            {
                "species": [
                    {
                        "element": "O",
                        "occu": 1
                    }
                ],
                "abc": [
                    0.56093748,
                    0.16011088,
                    0.52716043
                ],
                "xyz": [
                    3.912858133643099,
                    -1.247831682392674,
                    2.5702917388577498
                ],
                "label": "O",
                "properties": {}
            }
        ]
    },
    "spacegroup": {
        "source": "spglib",
        "symbol": "Cmc2_1",
        "number": 36,
        "point_group": "mm2",
        "crystal_system": "orthorhombic",
        "hall": "C 2c -2"
    },
    "dielectric": {
        "epsilon_ionic": [
            [
                2.07405451,
                -0.0,
                -4.58e-06
            ],
            [
                -0.0,
                2.47022919,
                5.46e-06
            ],
            [
                -4.58e-06,
                5.46e-06,
                5.24294579
            ]
        ],
        "epsilon_ionic_avg": 3.2624098300000006,
        "epsilon_ionic_eig": [
            2.0740545099933803,
            5.242945790017373,
            2.470229189989248
        ],
        "epsilon_electronic": [
            [
                2.6599184,
                0.0,
                0.0
            ],
            [
                0.0,
                2.70175927,
                0.0
            ],
            [
                0.0,
                0.0,
                2.79146355
            ]
        ],
        "epsilon_electronic_avg": 2.71771374,
        "epsilon_electronic_eig": [
            2.6599184,
            2.70175927,
            2.79146355
        ]
    },
    "phonon": {
        "lowest_freq": -0.18535536948373413,
        "frequency": [
            -0.18535536948373413,
            -0.03479515931788361,
            -0.019499108187404864,
            4.151793498284427,
            4.450038581735966,
            5.06798668900405,
            5.1125722361258195,
            5.271254029967465,
            5.458601283352144,
            5.660464789112676,
            6.0283567713579735,
            6.053274148182908,
            6.414884247428856,
            6.480760369611524,
            6.778884374763663,
            6.96741349512172,
            7.185021736701171,
            7.242112463099361,
            7.4856672424210915,
            7.639386989393009,
            8.240697352754218,
            8.351563036561826,
            9.075882313116967,
            9.36717341942795,
            10.053553463869521,
            10.34924821467995,
            11.06095309543298,
            11.253460338070308,
            13.83102743221239,
            16.355918357142677,
            20.30364900218845,
            21.436791803857425,
            23.238185689282698,
            23.60101359188215,
            23.63532017197185,
            23.658838812539855
        ]
    },
    "born_effective_charge": {
        "avg_abs_trace": 1.6356077777777778,
        "tensors": [
            [
                [
                    1.05441,
                    -0.06896,
                    0.00134
                ],
                [
                    0.11016,
                    1.00407,
                    -0.00859
                ],
                [
                    -0.02982,
                    -0.02608,
                    1.00433
                ]
            ],
            [
                [
                    1.05441,
                    0.06895,
                    -0.00134
                ],
                [
                    -0.11016,
                    1.00407,
                    -0.00859
                ],
                [
                    0.02982,
                    -0.02608,
                    1.00433
                ]
            ],
            [
                [
                    1.05441,
                    -0.06895,
                    -0.00134
                ],
                [
                    0.11016,
                    1.00407,
                    0.00859
                ],
                [
                    0.02982,
                    0.02608,
                    1.00433
                ]
            ],
            [
                [
                    1.05441,
                    0.06896,
                    0.00134
                ],
                [
                    -0.11016,
                    1.00407,
                    0.00859
                ],
                [
                    -0.02982,
                    0.02608,
                    1.00433
                ]
            ],
            [
                [
                    2.52321,
                    0.0,
                    -1e-05
                ],
                [
                    0.0,
                    2.86345,
                    -0.40584
                ],
                [
                    0.0,
                    0.33674,
                    3.20819
                ]
            ],
            [
                [
                    2.52321,
                    -0.0,
                    -1e-05
                ],
                [
                    0.0,
                    2.86345,
                    0.40584
                ],
                [
                    0.0,
                    -0.33674,
                    3.20819
                ]
            ],
            [
                [
                    -0.98249,
                    -3e-05,
                    0.0
                ],
                [
                    0.0,
                    -1.87868,
                    -0.57062
                ],
                [
                    0.0,
                    -0.72589,
                    -2.47198
                ]
            ],
            [
                [
                    -0.98249,
                    3e-05,
                    0.0
                ],
                [
                    0.0,
                    -1.87868,
                    0.57061
                ],
                [
                    0.0,
                    0.72589,
                    -2.47198
                ]
            ],
            [
                [
                    -1.82478,
                    -0.23962,
                    0.07489
                ],
                [
                    -0.40795,
                    -1.49645,
                    0.1087
                ],
                [
                    0.1115,
                    0.02483,
                    -1.37244
                ]
            ],
            [
                [
                    -1.82475,
                    -0.23959,
                    -0.07488
                ],
                [
                    -0.40794,
                    -1.49646,
                    -0.1087
                ],
                [
                    -0.1115,
                    -0.02483,
                    -1.37244
                ]
            ],
            [
                [
                    -1.82475,
                    0.23959,
                    -0.07488
                ],
                [
                    0.40795,
                    -1.49645,
                    0.1087
                ],
                [
                    -0.1115,
                    0.02483,
                    -1.37244
                ]
            ],
            [
                [
                    -1.82478,
                    0.23962,
                    0.07489
                ],
                [
                    0.40794,
                    -1.49646,
                    -0.1087
                ],
                [
                    0.1115,
                    -0.02483,
                    -1.37244
                ]
            ]
        ]
    },
    "band_gap": 2.9414000000000002,
    "is_direct": false,
    "formula": "Na2GeO3"
}