{
    "mp_id": "mp-561725",
    "nelements": 3,
    "nsites": 24,
    "elements": [
        "B",
        "Cs",
        "O"
    ],
    "structure": {
        "@module": "pymatgen.core.structure",
        "@class": "Structure",
        "charge": null,
        "lattice": {
            "matrix": [
                [
                    6.80427705,
                    3.92845115,
                    2.76212831
                ],
                [
                    -6.80427705,
                    3.92845115,
                    2.76212831
                ],
                [
                    0.0,
                    -7.85690231,
                    2.76212831
                ]
            ],
            "a": 8.328281179931215,
            "b": 8.328281179931215,
            "c": 8.328281137773075,
            "alpha": 109.5729014753699,
            "beta": 109.5729014753699,
            "gamma": 109.57290209121466,
            "volume": 442.99461341454605
        },
        "sites": [
            {
                "species": [
                    {
                        "element": "Cs",
                        "occu": 1
                    }
                ],
                "abc": [
                    0.80920406,
                    0.25,
                    0.69079594
                ],
                "xyz": [
                    3.804979351724823,
                    -1.266484809132952,
                    4.833724542500001
                ],
                "label": "Cs",
                "properties": {}
            },
            {
                "species": [
                    {
                        "element": "Cs",
                        "occu": 1
                    }
                ],
                "abc": [
                    0.69079594,
                    0.80920406,
                    0.25
                ],
                "xyz": [
                    -0.8056816534496463,
                    3.9284511474999997,
                    4.833724542500001
                ],
                "label": "Cs",
                "properties": {}
            },
            {
                "species": [
                    {
                        "element": "Cs",
                        "occu": 1
                    }
                ],
                "abc": [
                    0.19079594,
                    0.75,
                    0.30920406
                ],
                "xyz": [
                    -3.804979351724823,
                    1.266484799132952,
                    3.4526603875
                ],
                "label": "Cs",
                "properties": {}
            },
            {
                "species": [
                    {
                        "element": "Cs",
                        "occu": 1
                    }
                ],
                "abc": [
                    0.75,
                    0.30920406,
                    0.19079594
                ],
                "xyz": [
                    2.9992976982751767,
                    2.661966345867047,
                    3.4526603875
                ],
                "label": "Cs",
                "properties": {}
            },
            {
                "species": [
                    {
                        "element": "Cs",
                        "occu": 1
                    }
                ],
                "abc": [
                    0.25,
                    0.69079594,
                    0.80920406
                ],
                "xyz": [
                    -2.9992976982751767,
                    -2.6619663558670474,
                    4.833724542500001
                ],
                "label": "Cs",
                "properties": {}
            },
            {
                "species": [
                    {
                        "element": "Cs",
                        "occu": 1
                    }
                ],
                "abc": [
                    0.30920406,
                    0.19079594,
                    0.75
                ],
                "xyz": [
                    0.805681653449646,
                    -3.9284511575,
                    3.4526603875
                ],
                "label": "Cs",
                "properties": {}
            },
            {
                "species": [
                    {
                        "element": "B",
                        "occu": 1
                    }
                ],
                "abc": [
                    0.35664078,
                    0.14335922,
                    0.25
                ],
                "xyz": [
                    1.4512268238961976,
                    -2.4999999848063226e-09,
                    2.0715962325
                ],
                "label": "B",
                "properties": {}
            },
            {
                "species": [
                    {
                        "element": "B",
                        "occu": 1
                    }
                ],
                "abc": [
                    0.75,
                    0.64335922,
                    0.85664078
                ],
                "xyz": [
                    0.7256134119480988,
                    -1.2567992930500989,
                    6.2147886974999995
                ],
                "label": "B",
                "properties": {}
            },
            {
                "species": [
                    {
                        "element": "B",
                        "occu": 1
                    }
                ],
                "abc": [
                    0.85664078,
                    0.75,
                    0.64335922
                ],
                "xyz": [
                    0.7256134119480988,
                    1.2567992780500985,
                    6.2147886975
                ],
                "label": "B",
                "properties": {}
            },
            {
                "species": [
                    {
                        "element": "B",
                        "occu": 1
                    }
                ],
                "abc": [
                    0.64335922,
                    0.85664078,
                    0.75
                ],
                "xyz": [
                    -1.4512268238961976,
                    -7.500000620552782e-09,
                    6.2147886975
                ],
                "label": "B",
                "properties": {}
            },
            {
                "species": [
                    {
                        "element": "B",
                        "occu": 1
                    }
                ],
                "abc": [
                    0.14335922,
                    0.25,
                    0.35664078
                ],
                "xyz": [
                    -0.7256134119480989,
                    -1.2567992880500989,
                    2.0715962325
                ],
                "label": "B",
                "properties": {}
            },
            {
                "species": [
                    {
                        "element": "B",
                        "occu": 1
                    }
                ],
                "abc": [
                    0.25,
                    0.35664078,
                    0.14335922
                ],
                "xyz": [
                    -0.7256134119480988,
                    1.2567992830500987,
                    2.0715962325
                ],
                "label": "B",
                "properties": {}
            },
            {
                "species": [
                    {
                        "element": "O",
                        "occu": 1
                    }
                ],
                "abc": [
                    0.35190836,
                    0.25,
                    0.14809164
                ],
                "xyz": [
                    0.6934127151511378,
                    1.2010260406289255,
                    2.0715962325
                ],
                "label": "O",
                "properties": {}
            },
            {
                "species": [
                    {
                        "element": "O",
                        "occu": 1
                    }
                ],
                "abc": [
                    0.85190836,
                    0.64809164,
                    0.75
                ],
                "xyz": [
                    1.3868254303022756,
                    -7.500000620552782e-09,
                    6.2147886975
                ],
                "label": "O",
                "properties": {}
            },
            {
                "species": [
                    {
                        "element": "O",
                        "occu": 1
                    }
                ],
                "abc": [
                    0.64809164,
                    0.75,
                    0.85190836
                ],
                "xyz": [
                    -0.6934127151511378,
                    -1.2010260506289256,
                    6.2147886975
                ],
                "label": "O",
                "properties": {}
            },
            {
                "species": [
                    {
                        "element": "O",
                        "occu": 1
                    }
                ],
                "abc": [
                    0.95405721,
                    0.75,
                    0.54594279
                ],
                "xyz": [
                    1.3884617908900303,
                    2.4048863384114467,
                    6.2147886975
                ],
                "label": "O",
                "properties": {}
            },
            {
                "species": [
                    {
                        "element": "O",
                        "occu": 1
                    }
                ],
                "abc": [
                    0.45405721,
                    0.04594279,
                    0.25
                ],
                "xyz": [
                    2.7769235817800606,
                    -2.5000002068509275e-09,
                    2.0715962325
                ],
                "label": "O",
                "properties": {}
            },
            {
                "species": [
                    {
                        "element": "O",
                        "occu": 1
                    }
                ],
                "abc": [
                    0.25,
                    0.45405721,
                    0.04594279
                ],
                "xyz": [
                    -1.3884617908900303,
                    2.4048863434114467,
                    2.0715962325
                ],
                "label": "O",
                "properties": {}
            },
            {
                "species": [
                    {
                        "element": "O",
                        "occu": 1
                    }
                ],
                "abc": [
                    0.54594279,
                    0.95405721,
                    0.75
                ],
                "xyz": [
                    -2.7769235817800606,
                    -7.500000620552782e-09,
                    6.2147886975
                ],
                "label": "O",
                "properties": {}
            },
            {
                "species": [
                    {
                        "element": "O",
                        "occu": 1
                    }
                ],
                "abc": [
                    0.14809164,
                    0.35190836,
                    0.25
                ],
                "xyz": [
                    -1.3868254303022758,
                    -2.4999999848063226e-09,
                    2.0715962324999997
                ],
                "label": "O",
                "properties": {}
            },
            {
                "species": [
                    {
                        "element": "O",
                        "occu": 1
                    }
                ],
                "abc": [
                    0.75,
                    0.85190836,
                    0.64809164
                ],
                "xyz": [
                    -0.6934127151511378,
                    1.2010260356289253,
                    6.2147886974999995
                ],
                "label": "O",
                "properties": {}
            },
            {
                "species": [
                    {
                        "element": "O",
                        "occu": 1
                    }
                ],
                "abc": [
                    0.25,
                    0.14809164,
                    0.35190836
                ],
                "xyz": [
                    0.693412715151138,
                    -1.2010260456289252,
                    2.0715962325
                ],
                "label": "O",
                "properties": {}
            },
            {
                "species": [
                    {
                        "element": "O",
                        "occu": 1
                    }
                ],
                "abc": [
                    0.04594279,
                    0.25,
                    0.45405721
                ],
                "xyz": [
                    -1.3884617908900303,
                    -2.4048863484114467,
                    2.0715962325
                ],
                "label": "O",
                "properties": {}
            },
            {
                "species": [
                    {
                        "element": "O",
                        "occu": 1
                    }
                ],
                "abc": [
                    0.75,
                    0.54594279,
                    0.95405721
                ],
                "xyz": [
                    1.3884617908900303,
                    -2.404886353411446,
                    6.2147886975
                ],
                "label": "O",
                "properties": {}
            }
        ]
    },
    "spacegroup": {
        "source": "spglib",
        "symbol": "R-3c",
        "number": 167,
        "point_group": "-3m",
        "crystal_system": "trigonal",
        "hall": "-R 3 2\"c"
    },
    "dielectric": {
        "epsilon_ionic": [
            [
                4.27720842,
                -1.6e-07,
                0.0
            ],
            [
                -1.6e-07,
                4.27727956,
                5.635e-05
            ],
            [
                0.0,
                5.635e-05,
                10.29182035
            ]
        ],
        "epsilon_ionic_avg": 6.282102776666669,
        "epsilon_ionic_eig": [
            4.2772084196401465,
            4.277279559831916,
            10.291820350527942
        ],
        "epsilon_electronic": [
            [
                2.76624243,
                0.0,
                -0.0
            ],
            [
                0.0,
                2.76624221,
                0.0
            ],
            [
                0.0,
                -0.0,
                2.42822069
            ]
        ],
        "epsilon_electronic_avg": 2.653568443333333,
        "epsilon_electronic_eig": [
            2.76624243,
            2.76624221,
            2.42822069
        ]
    },
    "phonon": {
        "lowest_freq": -0.06380259948597759,
        "frequency": [
            -0.06380259948597759,
            -0.03003675170491258,
            -0.03003675048440708,
            0.9439205184701076,
            0.9806858890544917,
            1.0569824148977587,
            1.0569824148977587,
            1.370474196163866,
            1.370474196163866,
            1.4369356808655749,
            1.5898005203024679,
            1.5898005817944911,
            1.8144068760980612,
            2.0717842179741504,
            2.0717842356690532,
            2.3733164305669154,
            2.4766007031256816,
            2.4766007228624223,
            2.590925209298208,
            2.593484014346442,
            3.0303815514091568,
            3.030381559474152,
            3.4909390373688844,
            3.490939100377752,
            3.663566780203119,
            3.6784966763764584,
            3.6784967793587993,
            3.7409782497038684,
            3.828799177768066,
            3.828799196917683,
            4.591169502630996,
            4.591169521262424,
            4.6382349884923855,
            4.638235025377126,
            5.0050523584303,
            5.075653015695529,
            10.648358353773174,
            10.648358525912474,
            10.786905050501591,
            10.786905209101384,
            13.412373303565966,
            13.412373431119896,
            13.449755017641763,
            13.449755135755504,
            17.182432080574635,
            17.188267699317947,
            17.48708115687597,
            17.49161530460955,
            20.350739913367807,
            20.350739913367807,
            20.602907591669204,
            20.602907591669204,
            21.10675093725924,
            21.670518561303886,
            22.103202953976655,
            22.131956427768394,
            27.619441450697,
            27.619441760406545,
            27.70087725244488,
            27.700877561243928,
            31.873641363664355,
            31.87511047682591,
            35.28431932281815,
            35.2843202925412,
            35.61858715709099,
            35.61858815202149,
            41.297206701689,
            41.29720735267769,
            41.460428718691745,
            41.460429367117605,
            44.4445060616179,
            44.68140936169211
        ]
    },
    "born_effective_charge": {
        "avg_abs_trace": 1.6450444444444443,
        "tensors": [
            [
                [
                    1.38103,
                    -0.03199,
                    -0.09464
                ],
                [
                    -0.03204,
                    1.34417,
                    0.05466
                ],
                [
                    -0.11833,
                    0.06832,
                    1.33129
                ]
            ],
            [
                [
                    1.3256,
                    0.0,
                    0.0
                ],
                [
                    -0.0,
                    1.39945,
                    -0.10927
                ],
                [
                    -0.0,
                    -0.13664,
                    1.33129
                ]
            ],
            [
                [
                    1.38104,
                    -0.03199,
                    -0.09468
                ],
                [
                    -0.03208,
                    1.34415,
                    0.05474
                ],
                [
                    -0.11833,
                    0.06832,
                    1.33129
                ]
            ],
            [
                [
                    1.38104,
                    0.03199,
                    0.09468
                ],
                [
                    0.03204,
                    1.34417,
                    0.05466
                ],
                [
                    0.11833,
                    0.06832,
                    1.33129
                ]
            ],
            [
                [
                    1.38103,
                    0.03199,
                    0.09464
                ],
                [
                    0.03208,
                    1.34415,
                    0.05474
                ],
                [
                    0.11833,
                    0.06832,
                    1.33129
                ]
            ],
            [
                [
                    1.3257,
                    0.0,
                    -0.0
                ],
                [
                    0.0,
                    1.39945,
                    -0.10927
                ],
                [
                    0.0,
                    -0.13664,
                    1.33129
                ]
            ],
            [
                [
                    3.04526,
                    0.0,
                    -0.0
                ],
                [
                    -0.00064,
                    2.33723,
                    0.02675
                ],
                [
                    2e-05,
                    0.01395,
                    0.43139
                ]
            ],
            [
                [
                    2.51426,
                    -0.30651,
                    -0.02317
                ],
                [
                    -0.30651,
                    2.8679,
                    -0.01339
                ],
                [
                    -0.01207,
                    -0.00699,
                    0.43139
                ]
            ],
            [
                [
                    2.51426,
                    0.30651,
                    0.02317
                ],
                [
                    0.3066,
                    2.8685,
                    -0.0134
                ],
                [
                    0.01209,
                    -0.00696,
                    0.43139
                ]
            ],
            [
                [
                    3.04515,
                    0.0,
                    0.0
                ],
                [
                    0.00064,
                    2.33723,
                    0.02675
                ],
                [
                    -2e-05,
                    0.01395,
                    0.43139
                ]
            ],
            [
                [
                    2.51419,
                    0.30659,
                    0.02319
                ],
                [
                    0.30651,
                    2.8679,
                    -0.01339
                ],
                [
                    0.01207,
                    -0.00699,
                    0.43139
                ]
            ],
            [
                [
                    2.51419,
                    -0.30659,
                    -0.02319
                ],
                [
                    -0.3066,
                    2.8685,
                    -0.0134
                ],
                [
                    -0.01209,
                    -0.00696,
                    0.43139
                ]
            ],
            [
                [
                    -2.41937,
                    0.54103,
                    -0.06915
                ],
                [
                    0.54107,
                    -1.79501,
                    0.03993
                ],
                [
                    -0.06371,
                    0.03681,
                    -0.5277
                ]
            ],
            [
                [
                    -1.48183,
                    0.0,
                    -0.0
                ],
                [
                    0.00083,
                    -2.7318,
                    -0.07991
                ],
                [
                    3e-05,
                    -0.07358,
                    -0.5277
                ]
            ],
            [
                [
                    -2.41935,
                    0.5413,
                    -0.06924
                ],
                [
                    0.54125,
                    -1.79398,
                    0.03994
                ],
                [
                    -0.06373,
                    0.03677,
                    -0.5277
                ]
            ],
            [
                [
                    -1.71441,
                    -0.40245,
                    -0.1096
                ],
                [
                    -0.40331,
                    -2.18128,
                    0.06331
                ],
                [
                    -0.09974,
                    0.05761,
                    -1.23497
                ]
            ],
            [
                [
                    -2.41168,
                    -0.0,
                    0.0
                ],
                [
                    0.00421,
                    -1.48201,
                    -0.1266
                ],
                [
                    3e-05,
                    -0.11518,
                    -1.23497
                ]
            ],
            [
                [
                    -1.71446,
                    0.40271,
                    0.10966
                ],
                [
                    0.40331,
                    -2.18128,
                    0.06331
                ],
                [
                    0.09974,
                    0.05761,
                    -1.23497
                ]
            ],
            [
                [
                    -2.41179,
                    0.0,
                    -0.0
                ],
                [
                    -0.00421,
                    -1.48201,
                    -0.1266
                ],
                [
                    -3e-05,
                    -0.11518,
                    -1.23497
                ]
            ],
            [
                [
                    -1.48225,
                    0.0,
                    0.0
                ],
                [
                    -0.00083,
                    -2.7318,
                    -0.07991
                ],
                [
                    -3e-05,
                    -0.07358,
                    -0.5277
                ]
            ],
            [
                [
                    -2.41935,
                    -0.5413,
                    0.06924
                ],
                [
                    -0.54107,
                    -1.79501,
                    0.03993
                ],
                [
                    0.06371,
                    0.03681,
                    -0.5277
                ]
            ],
            [
                [
                    -2.41937,
                    -0.54103,
                    0.06915
                ],
                [
                    -0.54125,
                    -1.79398,
                    0.03994
                ],
                [
                    0.06373,
                    0.03677,
                    -0.5277
                ]
            ],
            [
                [
                    -1.71446,
                    -0.40271,
                    -0.10966
                ],
                [
                    -0.40185,
                    -2.17733,
                    0.06325
                ],
                [
                    -0.09976,
                    0.05757,
                    -1.23497
                ]
            ],
            [
                [
                    -1.71441,
                    0.40245,
                    0.1096
                ],
                [
                    0.40185,
                    -2.17733,
                    0.06325
                ],
                [
                    0.09976,
                    0.05757,
                    -1.23497
                ]
            ]
        ]
    },
    "band_gap": 3.9294999999999995,
    "is_direct": false,
    "formula": "CsBO2"
}