{
    "mp_id": "mp-559213",
    "nelements": 3,
    "nsites": 36,
    "elements": [
        "Cs",
        "In",
        "O"
    ],
    "structure": {
        "@module": "pymatgen.core.structure",
        "@class": "Structure",
        "charge": null,
        "lattice": {
            "matrix": [
                [
                    10.14970613,
                    0.0,
                    0.0
                ],
                [
                    0.0,
                    3.3644312,
                    0.0
                ],
                [
                    0.0,
                    0.0,
                    16.76190947
                ]
            ],
            "a": 10.14970613,
            "b": 3.3644312,
            "c": 16.76190947,
            "alpha": 90.0,
            "beta": 90.0,
            "gamma": 90.0,
            "volume": 572.3854830129484
        },
        "sites": [
            {
                "species": [
                    {
                        "element": "Cs",
                        "occu": 1
                    }
                ],
                "abc": [
                    0.53532948,
                    0.75,
                    0.12415751
                ],
                "xyz": [
                    5.4334369047257125,
                    2.5233233999999998,
                    2.0811169426406195
                ],
                "label": "Cs",
                "properties": {}
            },
            {
                "species": [
                    {
                        "element": "Cs",
                        "occu": 1
                    }
                ],
                "abc": [
                    0.96467052,
                    0.25,
                    0.62415751
                ],
                "xyz": [
                    9.791122290274288,
                    0.8411078,
                    10.462071677640619
                ],
                "label": "Cs",
                "properties": {}
            },
            {
                "species": [
                    {
                        "element": "Cs",
                        "occu": 1
                    }
                ],
                "abc": [
                    0.03532948,
                    0.75,
                    0.37584249
                ],
                "xyz": [
                    0.35858383972571245,
                    2.5233233999999998,
                    6.299837792359379
                ],
                "label": "Cs",
                "properties": {}
            },
            {
                "species": [
                    {
                        "element": "Cs",
                        "occu": 1
                    }
                ],
                "abc": [
                    0.46467052,
                    0.25,
                    0.87584249
                ],
                "xyz": [
                    4.716269225274288,
                    0.8411078,
                    14.68079252735938
                ],
                "label": "Cs",
                "properties": {}
            },
            {
                "species": [
                    {
                        "element": "In",
                        "occu": 1
                    }
                ],
                "abc": [
                    0.1864022,
                    0.75,
                    0.18147174
                ],
                "xyz": [
                    1.891927551985486,
                    2.5233233999999998,
                    3.0418128772433777
                ],
                "label": "In",
                "properties": {}
            },
            {
                "species": [
                    {
                        "element": "In",
                        "occu": 1
                    }
                ],
                "abc": [
                    0.6864022,
                    0.75,
                    0.31852826
                ],
                "xyz": [
                    6.966780616985486,
                    2.5233233999999998,
                    5.339141857756622
                ],
                "label": "In",
                "properties": {}
            },
            {
                "species": [
                    {
                        "element": "In",
                        "occu": 1
                    }
                ],
                "abc": [
                    0.64591164,
                    0.25,
                    0.48734533
                ],
                "xyz": [
                    6.555813331946354,
                    0.8411078,
                    8.168838302087275
                ],
                "label": "In",
                "properties": {}
            },
            {
                "species": [
                    {
                        "element": "In",
                        "occu": 1
                    }
                ],
                "abc": [
                    0.14591164,
                    0.25,
                    0.01265467
                ],
                "xyz": [
                    1.4809602669463533,
                    0.8411078,
                    0.2121164329127249
                ],
                "label": "In",
                "properties": {}
            },
            {
                "species": [
                    {
                        "element": "In",
                        "occu": 1
                    }
                ],
                "abc": [
                    0.89544675,
                    0.25,
                    0.16045965
                ],
                "xyz": [
                    9.088521367563578,
                    0.8411078,
                    2.6896101268878856
                ],
                "label": "In",
                "properties": {}
            },
            {
                "species": [
                    {
                        "element": "In",
                        "occu": 1
                    }
                ],
                "abc": [
                    0.35408836,
                    0.75,
                    0.51265467
                ],
                "xyz": [
                    3.5938927980536466,
                    2.5233233999999998,
                    8.593071167912724
                ],
                "label": "In",
                "properties": {}
            },
            {
                "species": [
                    {
                        "element": "In",
                        "occu": 1
                    }
                ],
                "abc": [
                    0.3135978,
                    0.25,
                    0.68147174
                ],
                "xyz": [
                    3.182925513014514,
                    0.8411078,
                    11.422767612243376
                ],
                "label": "In",
                "properties": {}
            },
            {
                "species": [
                    {
                        "element": "In",
                        "occu": 1
                    }
                ],
                "abc": [
                    0.8135978,
                    0.25,
                    0.81852826
                ],
                "xyz": [
                    8.257778578014515,
                    0.8411078,
                    13.720096592756622
                ],
                "label": "In",
                "properties": {}
            },
            {
                "species": [
                    {
                        "element": "In",
                        "occu": 1
                    }
                ],
                "abc": [
                    0.60455325,
                    0.75,
                    0.66045965
                ],
                "xyz": [
                    6.136037827436423,
                    2.5233233999999998,
                    11.070564861887885
                ],
                "label": "In",
                "properties": {}
            },
            {
                "species": [
                    {
                        "element": "In",
                        "occu": 1
                    }
                ],
                "abc": [
                    0.10455325,
                    0.75,
                    0.83954035
                ],
                "xyz": [
                    1.0611847624364226,
                    2.5233233999999998,
                    14.072299343112114
                ],
                "label": "In",
                "properties": {}
            },
            {
                "species": [
                    {
                        "element": "In",
                        "occu": 1
                    }
                ],
                "abc": [
                    0.85408836,
                    0.75,
                    0.98734533
                ],
                "xyz": [
                    8.668745863053648,
                    2.5233233999999998,
                    16.549793037087273
                ],
                "label": "In",
                "properties": {}
            },
            {
                "species": [
                    {
                        "element": "In",
                        "occu": 1
                    }
                ],
                "abc": [
                    0.39544675,
                    0.25,
                    0.33954035
                ],
                "xyz": [
                    4.013668302563578,
                    0.8411078,
                    5.691344608112114
                ],
                "label": "In",
                "properties": {}
            },
            {
                "species": [
                    {
                        "element": "O",
                        "occu": 1
                    }
                ],
                "abc": [
                    0.69316751,
                    0.25,
                    0.71443607
                ],
                "xyz": [
                    7.035446525363836,
                    0.8411078,
                    11.975312727442581
                ],
                "label": "O",
                "properties": {}
            },
            {
                "species": [
                    {
                        "element": "O",
                        "occu": 1
                    }
                ],
                "abc": [
                    0.27533004,
                    0.25,
                    0.11341833
                ],
                "xyz": [
                    2.794518994761145,
                    0.8411078,
                    1.901107779698585
                ],
                "label": "O",
                "properties": {}
            },
            {
                "species": [
                    {
                        "element": "O",
                        "occu": 1
                    }
                ],
                "abc": [
                    0.77625832,
                    0.25,
                    0.0538019
                ],
                "xyz": [
                    7.878793828967501,
                    0.8411078,
                    0.9018225771139929
                ],
                "label": "O",
                "properties": {}
            },
            {
                "species": [
                    {
                        "element": "O",
                        "occu": 1
                    }
                ],
                "abc": [
                    0.22466996,
                    0.75,
                    0.61341833
                ],
                "xyz": [
                    2.280334070238855,
                    2.5233233999999998,
                    10.282062514698584
                ],
                "label": "O",
                "properties": {}
            },
            {
                "species": [
                    {
                        "element": "O",
                        "occu": 1
                    }
                ],
                "abc": [
                    0.97719473,
                    0.25,
                    0.92297964
                ],
                "xyz": [
                    9.918239341284695,
                    0.8411078,
                    15.47090116833319
                ],
                "label": "O",
                "properties": {}
            },
            {
                "species": [
                    {
                        "element": "O",
                        "occu": 1
                    }
                ],
                "abc": [
                    0.22374168,
                    0.75,
                    0.9461981
                ],
                "xyz": [
                    2.2709123010324985,
                    2.5233233999999998,
                    15.860086892886008
                ],
                "label": "O",
                "properties": {}
            },
            {
                "species": [
                    {
                        "element": "O",
                        "occu": 1
                    }
                ],
                "abc": [
                    0.30683249,
                    0.75,
                    0.28556393
                ],
                "xyz": [
                    3.114259604636164,
                    2.5233233999999998,
                    4.786596742557418
                ],
                "label": "O",
                "properties": {}
            },
            {
                "species": [
                    {
                        "element": "O",
                        "occu": 1
                    }
                ],
                "abc": [
                    0.57077253,
                    0.25,
                    0.27119849
                ],
                "xyz": [
                    5.793173446576608,
                    0.8411078,
                    4.5458045377807
                ],
                "label": "O",
                "properties": {}
            },
            {
                "species": [
                    {
                        "element": "O",
                        "occu": 1
                    }
                ],
                "abc": [
                    0.80683249,
                    0.75,
                    0.21443607
                ],
                "xyz": [
                    8.189112669636163,
                    2.5233233999999998,
                    3.594357992442583
                ],
                "label": "O",
                "properties": {}
            },
            {
                "species": [
                    {
                        "element": "O",
                        "occu": 1
                    }
                ],
                "abc": [
                    0.42922747,
                    0.75,
                    0.72880151
                ],
                "xyz": [
                    4.356532683423391,
                    2.5233233999999998,
                    12.2161049322193
                ],
                "label": "O",
                "properties": {}
            },
            {
                "species": [
                    {
                        "element": "O",
                        "occu": 1
                    }
                ],
                "abc": [
                    0.77533004,
                    0.25,
                    0.38658167
                ],
                "xyz": [
                    7.869372059761146,
                    0.8411078,
                    6.479846955301414
                ],
                "label": "O",
                "properties": {}
            },
            {
                "species": [
                    {
                        "element": "O",
                        "occu": 1
                    }
                ],
                "abc": [
                    0.92922747,
                    0.75,
                    0.77119849
                ],
                "xyz": [
                    9.431385748423391,
                    2.5233233999999998,
                    12.926759272780698
                ],
                "label": "O",
                "properties": {}
            },
            {
                "species": [
                    {
                        "element": "O",
                        "occu": 1
                    }
                ],
                "abc": [
                    0.47719473,
                    0.25,
                    0.57702036
                ],
                "xyz": [
                    4.843386276284695,
                    0.8411078,
                    9.671963036666808
                ],
                "label": "O",
                "properties": {}
            },
            {
                "species": [
                    {
                        "element": "O",
                        "occu": 1
                    }
                ],
                "abc": [
                    0.19316751,
                    0.25,
                    0.78556393
                ],
                "xyz": [
                    1.9605934603638362,
                    0.8411078,
                    13.167551477557417
                ],
                "label": "O",
                "properties": {}
            },
            {
                "species": [
                    {
                        "element": "O",
                        "occu": 1
                    }
                ],
                "abc": [
                    0.72466996,
                    0.75,
                    0.88658167
                ],
                "xyz": [
                    7.355187135238855,
                    2.5233233999999998,
                    14.860801690301415
                ],
                "label": "O",
                "properties": {}
            },
            {
                "species": [
                    {
                        "element": "O",
                        "occu": 1
                    }
                ],
                "abc": [
                    0.02280527,
                    0.75,
                    0.07702036
                ],
                "xyz": [
                    0.2314667887153051,
                    2.5233233999999998,
                    1.291008301666809
                ],
                "label": "O",
                "properties": {}
            },
            {
                "species": [
                    {
                        "element": "O",
                        "occu": 1
                    }
                ],
                "abc": [
                    0.27625832,
                    0.25,
                    0.4461981
                ],
                "xyz": [
                    2.8039407639675016,
                    0.8411078,
                    7.479132157886006
                ],
                "label": "O",
                "properties": {}
            },
            {
                "species": [
                    {
                        "element": "O",
                        "occu": 1
                    }
                ],
                "abc": [
                    0.52280527,
                    0.75,
                    0.42297964
                ],
                "xyz": [
                    5.306319853715305,
                    2.5233233999999998,
                    7.08994643333319
                ],
                "label": "O",
                "properties": {}
            },
            {
                "species": [
                    {
                        "element": "O",
                        "occu": 1
                    }
                ],
                "abc": [
                    0.72374168,
                    0.75,
                    0.5538019
                ],
                "xyz": [
                    7.3457653660324995,
                    2.5233233999999998,
                    9.282777312113991
                ],
                "label": "O",
                "properties": {}
            },
            {
                "species": [
                    {
                        "element": "O",
                        "occu": 1
                    }
                ],
                "abc": [
                    0.07077253,
                    0.25,
                    0.22880151
                ],
                "xyz": [
                    0.7183203815766089,
                    0.8411078,
                    3.8351501972192996
                ],
                "label": "O",
                "properties": {}
            }
        ]
    },
    "spacegroup": {
        "source": "spglib",
        "symbol": "Pnma",
        "number": 62,
        "point_group": "mmm",
        "crystal_system": "orthorhombic",
        "hall": "-P 2ac 2n"
    },
    "dielectric": {
        "epsilon_ionic": [
            [
                7.22350828,
                0.0,
                3e-08
            ],
            [
                0.0,
                11.36805214,
                1e-08
            ],
            [
                3e-08,
                1e-08,
                7.03510713
            ]
        ],
        "epsilon_ionic_avg": 8.542222516666667,
        "epsilon_ionic_eig": [
            7.223508280000007,
            7.035107129999996,
            11.36805214
        ],
        "epsilon_electronic": [
            [
                4.05702106,
                -0.0,
                0.0
            ],
            [
                -0.0,
                4.45920186,
                0.0
            ],
            [
                0.0,
                0.0,
                4.28060854
            ]
        ],
        "epsilon_electronic_avg": 4.265610486666667,
        "epsilon_electronic_eig": [
            4.05702106,
            4.45920186,
            4.28060854
        ]
    },
    "phonon": {
        "lowest_freq": -0.11898209380732197,
        "frequency": [
            -0.11898209380732197,
            -0.0658166873131154,
            -0.04739169435118936,
            0.8175776092933387,
            1.2414055573829348,
            1.3178899048043784,
            1.3272176603243553,
            1.3479826856070956,
            1.473602797638687,
            1.5537246794691992,
            1.6158320642154966,
            1.6312845524458524,
            1.7695342130155027,
            1.7845331718008923,
            2.0043033070016145,
            2.058090055812648,
            2.209551358185472,
            2.228295463144456,
            2.272423384554222,
            2.2761749005831913,
            2.4156216047185213,
            2.466237427357216,
            2.5190647090767957,
            2.5904894185004395,
            2.614768852660297,
            2.654884974110779,
            2.6556307593279804,
            2.9788524061473853,
            3.1969557866076217,
            3.2050636809580335,
            3.208006130471612,
            3.215183877319512,
            3.2534731130412324,
            3.2738951135495613,
            3.3956493176933153,
            4.045158478380022,
            4.140083779266415,
            4.187581219367954,
            4.214982891250483,
            4.541223741461504,
            4.8199325464399845,
            4.983146315789918,
            5.252106564046123,
            5.33565215629337,
            5.500572032430275,
            5.675424956422,
            5.693827432798123,
            5.775400688435607,
            6.093787725256892,
            6.207807712223181,
            6.527551913576563,
            6.536169353480166,
            6.815866827335459,
            7.059742471821159,
            7.233828588548063,
            7.238980630820298,
            8.949967471283566,
            9.088379935171137,
            9.172636140466214,
            9.534141981568037,
            9.588349055082599,
            9.59496445325073,
            9.598467931003604,
            9.600796249715051,
            10.810279210843513,
            10.824557042415263,
            11.103267947217148,
            11.339989879545728,
            11.359856729849437,
            11.420351624838649,
            11.748864686951135,
            11.932977500929713,
            11.9379550214594,
            12.029177572006619,
            12.050567002138532,
            12.5221815117016,
            12.524936759629217,
            12.744027545016298,
            13.056998014380845,
            13.069696492862802,
            13.155686767729684,
            13.16876081977684,
            13.350983975239954,
            13.417626840585651,
            13.653324660487478,
            13.716684511630309,
            13.730893203623479,
            13.734296575404874,
            13.82409414336814,
            14.102484914090471,
            14.377306754136987,
            14.930481945367433,
            15.031003296230265,
            15.599710959688858,
            15.600035082334736,
            15.62516916832904,
            15.627479441423885,
            15.724045251058001,
            15.958186072430502,
            16.207126066891288,
            16.466962332423513,
            16.794544557343052,
            17.161968148951523,
            17.377416927241686,
            19.04142132716714,
            19.05160838993307,
            19.290600356518667,
            19.681553546812484
        ]
    },
    "born_effective_charge": {
        "avg_abs_trace": 2.4111161111111112,
        "tensors": [
            [
                [
                    1.73796,
                    -0.0,
                    -0.02096
                ],
                [
                    3e-05,
                    1.21475,
                    -3e-05
                ],
                [
                    -0.01294,
                    -0.0,
                    1.31733
                ]
            ],
            [
                [
                    1.73795,
                    0.0,
                    0.02083
                ],
                [
                    -3e-05,
                    1.21475,
                    -3e-05
                ],
                [
                    0.01294,
                    -0.0,
                    1.31733
                ]
            ],
            [
                [
                    1.73796,
                    -0.0,
                    0.02096
                ],
                [
                    3e-05,
                    1.21475,
                    3e-05
                ],
                [
                    0.01291,
                    -0.0,
                    1.31758
                ]
            ],
            [
                [
                    1.73795,
                    0.0,
                    -0.02083
                ],
                [
                    -3e-05,
                    1.21475,
                    3e-05
                ],
                [
                    -0.01291,
                    -0.0,
                    1.31758
                ]
            ],
            [
                [
                    2.85876,
                    0.0,
                    0.64714
                ],
                [
                    0.00013,
                    3.54209,
                    0.00011
                ],
                [
                    0.5653,
                    -0.0,
                    3.19289
                ]
            ],
            [
                [
                    2.85876,
                    0.0,
                    -0.64714
                ],
                [
                    0.00013,
                    3.54209,
                    -0.00011
                ],
                [
                    -0.56533,
                    -0.0,
                    3.19292
                ]
            ],
            [
                [
                    2.37976,
                    -0.0,
                    -0.18115
                ],
                [
                    0.00026,
                    3.50387,
                    0.0
                ],
                [
                    -0.14252,
                    -0.0,
                    3.34135
                ]
            ],
            [
                [
                    2.37976,
                    -0.0,
                    0.18115
                ],
                [
                    0.00026,
                    3.50387,
                    -0.0
                ],
                [
                    0.14253,
                    -0.0,
                    3.34136
                ]
            ],
            [
                [
                    2.91292,
                    -0.0,
                    -0.26654
                ],
                [
                    -0.00011,
                    3.43785,
                    0.00021
                ],
                [
                    -0.22561,
                    -0.0,
                    3.11035
                ]
            ],
            [
                [
                    2.37978,
                    -0.0,
                    -0.18123
                ],
                [
                    -0.00026,
                    3.50387,
                    -0.0
                ],
                [
                    -0.14253,
                    -0.0,
                    3.34136
                ]
            ],
            [
                [
                    2.85887,
                    -0.0,
                    -0.64715
                ],
                [
                    -0.00013,
                    3.54209,
                    0.00011
                ],
                [
                    -0.5653,
                    -0.0,
                    3.19289
                ]
            ],
            [
                [
                    2.85887,
                    -0.0,
                    0.64715
                ],
                [
                    -0.00013,
                    3.54209,
                    -0.00011
                ],
                [
                    0.56533,
                    -0.0,
                    3.19292
                ]
            ],
            [
                [
                    2.91292,
                    -0.0,
                    0.26652
                ],
                [
                    0.00011,
                    3.43785,
                    0.00021
                ],
                [
                    0.22561,
                    -0.0,
                    3.11035
                ]
            ],
            [
                [
                    2.91292,
                    -0.0,
                    -0.26652
                ],
                [
                    0.00011,
                    3.43785,
                    -0.00021
                ],
                [
                    -0.22567,
                    -0.0,
                    3.11033
                ]
            ],
            [
                [
                    2.37978,
                    -0.0,
                    0.18123
                ],
                [
                    -0.00026,
                    3.50387,
                    0.0
                ],
                [
                    0.14252,
                    -0.0,
                    3.34135
                ]
            ],
            [
                [
                    2.91292,
                    -0.0,
                    0.26654
                ],
                [
                    -0.00011,
                    3.43785,
                    -0.00021
                ],
                [
                    0.22567,
                    -0.0,
                    3.11033
                ]
            ],
            [
                [
                    -2.18625,
                    -0.0,
                    -0.93857
                ],
                [
                    -0.00021,
                    -2.30777,
                    -0.00027
                ],
                [
                    -0.79142,
                    -0.0,
                    -2.3409
                ]
            ],
            [
                [
                    -1.92522,
                    0.0,
                    -0.29552
                ],
                [
                    -0.00011,
                    -2.2907,
                    0.00025
                ],
                [
                    -0.27359,
                    -0.0,
                    -2.10014
                ]
            ],
            [
                [
                    -1.67174,
                    0.0,
                    0.23916
                ],
                [
                    0.00011,
                    -2.33373,
                    -0.00027
                ],
                [
                    0.06693,
                    -0.0,
                    -2.30149
                ]
            ],
            [
                [
                    -1.92549,
                    0.0,
                    0.29584
                ],
                [
                    0.00011,
                    -2.2907,
                    0.00025
                ],
                [
                    0.27359,
                    -0.0,
                    -2.10014
                ]
            ],
            [
                [
                    -2.02475,
                    -0.0,
                    -0.0565
                ],
                [
                    -7e-05,
                    -2.46074,
                    0.00013
                ],
                [
                    -0.02955,
                    -0.0,
                    -2.33343
                ]
            ],
            [
                [
                    -1.67189,
                    -0.0,
                    0.2393
                ],
                [
                    -0.00011,
                    -2.33373,
                    0.00027
                ],
                [
                    0.06688,
                    -0.0,
                    -2.30154
                ]
            ],
            [
                [
                    -2.18628,
                    -0.0,
                    -0.9389
                ],
                [
                    0.00021,
                    -2.30777,
                    0.00027
                ],
                [
                    -0.79124,
                    -0.0,
                    -2.34086
                ]
            ],
            [
                [
                    -2.08134,
                    -0.0,
                    0.13431
                ],
                [
                    0.00021,
                    -2.30561,
                    0.00012
                ],
                [
                    0.06938,
                    -0.0,
                    -1.88592
                ]
            ],
            [
                [
                    -2.18628,
                    -0.0,
                    0.9389
                ],
                [
                    0.00021,
                    -2.30777,
                    -0.00027
                ],
                [
                    0.79142,
                    -0.0,
                    -2.3409
                ]
            ],
            [
                [
                    -2.08154,
                    0.0,
                    0.13415
                ],
                [
                    -0.00021,
                    -2.30561,
                    -0.00012
                ],
                [
                    0.06924,
                    -0.0,
                    -1.8861
                ]
            ],
            [
                [
                    -1.92522,
                    0.0,
                    0.29552
                ],
                [
                    -0.00011,
                    -2.2907,
                    -0.00025
                ],
                [
                    0.2734,
                    -0.0,
                    -2.10021
                ]
            ],
            [
                [
                    -2.08154,
                    0.0,
                    -0.13415
                ],
                [
                    -0.00021,
                    -2.30561,
                    0.00012
                ],
                [
                    -0.06938,
                    0.0,
                    -1.88592
                ]
            ],
            [
                [
                    -2.02475,
                    -0.0,
                    0.0565
                ],
                [
                    -7e-05,
                    -2.46074,
                    -0.00013
                ],
                [
                    0.02949,
                    -0.0,
                    -2.33351
                ]
            ],
            [
                [
                    -2.18625,
                    -0.0,
                    0.93857
                ],
                [
                    -0.00021,
                    -2.30777,
                    0.00027
                ],
                [
                    0.79124,
                    -0.0,
                    -2.34086
                ]
            ],
            [
                [
                    -1.92549,
                    0.0,
                    -0.29584
                ],
                [
                    0.00011,
                    -2.2907,
                    -0.00025
                ],
                [
                    -0.2734,
                    -0.0,
                    -2.10021
                ]
            ],
            [
                [
                    -2.02442,
                    -0.0,
                    -0.05649
                ],
                [
                    7e-05,
                    -2.46074,
                    -0.00013
                ],
                [
                    -0.02949,
                    -0.0,
                    -2.33351
                ]
            ],
            [
                [
                    -1.67174,
                    0.0,
                    -0.23916
                ],
                [
                    0.00011,
                    -2.33373,
                    0.00027
                ],
                [
                    -0.06688,
                    -0.0,
                    -2.30154
                ]
            ],
            [
                [
                    -2.02442,
                    -0.0,
                    0.05649
                ],
                [
                    7e-05,
                    -2.46074,
                    0.00013
                ],
                [
                    0.02955,
                    -0.0,
                    -2.33343
                ]
            ],
            [
                [
                    -1.67189,
                    -0.0,
                    -0.2393
                ],
                [
                    -0.00011,
                    -2.33373,
                    -0.00027
                ],
                [
                    -0.06693,
                    -0.0,
                    -2.30149
                ]
            ],
            [
                [
                    -2.08134,
                    -0.0,
                    -0.13431
                ],
                [
                    0.00021,
                    -2.30561,
                    -0.00012
                ],
                [
                    -0.06924,
                    -0.0,
                    -1.8861
                ]
            ]
        ]
    },
    "band_gap": 1.4745,
    "is_direct": false,
    "formula": "CsIn3O5"
}