{
    "mp_id": "mp-556316",
    "nelements": 4,
    "nsites": 22,
    "elements": [
        "Ba",
        "Bi",
        "Na",
        "O"
    ],
    "structure": {
        "@module": "pymatgen.core.structure",
        "@class": "Structure",
        "charge": null,
        "lattice": {
            "matrix": [
                [
                    5.2023987,
                    3.003606,
                    4.04146946
                ],
                [
                    -5.2023987,
                    3.003606,
                    4.04146946
                ],
                [
                    0.0,
                    -6.00721299,
                    4.04146946
                ]
            ],
            "a": 7.24017103617797,
            "b": 7.24017103617797,
            "c": 7.240171496818113,
            "alpha": 91.86919152564221,
            "beta": 91.86919152564221,
            "gamma": 91.86919410572327,
            "volume": 378.91098415456713
        },
        "sites": [
            {
                "species": [
                    {
                        "element": "Ba",
                        "occu": 1
                    }
                ],
                "abc": [
                    0.8980853,
                    0.25,
                    0.6019147
                ],
                "xyz": [
                    3.37159812220911,
                    -0.16743390912015332,
                    7.072571555
                ],
                "label": "Ba",
                "properties": {}
            },
            {
                "species": [
                    {
                        "element": "Ba",
                        "occu": 1
                    }
                ],
                "abc": [
                    0.1019147,
                    0.75,
                    0.3980853
                ],
                "xyz": [
                    -3.37159812220911,
                    0.16743291912015312,
                    5.051836825
                ],
                "label": "Ba",
                "properties": {}
            },
            {
                "species": [
                    {
                        "element": "Ba",
                        "occu": 1
                    }
                ],
                "abc": [
                    0.6019147,
                    0.8980853,
                    0.25
                ],
                "xyz": [
                    -1.5407975444182198,
                    3.0036057525000004,
                    7.072571555
                ],
                "label": "Ba",
                "properties": {}
            },
            {
                "species": [
                    {
                        "element": "Ba",
                        "occu": 1
                    }
                ],
                "abc": [
                    0.75,
                    0.3980853,
                    0.1019147
                ],
                "xyz": [
                    1.8308005777908902,
                    2.8361725858798468,
                    5.0518368250000005
                ],
                "label": "Ba",
                "properties": {}
            },
            {
                "species": [
                    {
                        "element": "Ba",
                        "occu": 1
                    }
                ],
                "abc": [
                    0.3980853,
                    0.1019147,
                    0.75
                ],
                "xyz": [
                    1.5407975444182198,
                    -3.0036067425000006,
                    5.0518368250000005
                ],
                "label": "Ba",
                "properties": {}
            },
            {
                "species": [
                    {
                        "element": "Ba",
                        "occu": 1
                    }
                ],
                "abc": [
                    0.25,
                    0.6019147,
                    0.8980853
                ],
                "xyz": [
                    -1.8308005777908902,
                    -2.836173575879847,
                    7.072571555
                ],
                "label": "Ba",
                "properties": {}
            },
            {
                "species": [
                    {
                        "element": "Na",
                        "occu": 1
                    }
                ],
                "abc": [
                    0.75,
                    0.75,
                    0.75
                ],
                "xyz": [
                    0.0,
                    -7.425000001504145e-07,
                    9.093306285
                ],
                "label": "Na",
                "properties": {}
            },
            {
                "species": [
                    {
                        "element": "Na",
                        "occu": 1
                    }
                ],
                "abc": [
                    0.25,
                    0.25,
                    0.25
                ],
                "xyz": [
                    0.0,
                    -2.4750000005013817e-07,
                    3.031102095
                ],
                "label": "Na",
                "properties": {}
            },
            {
                "species": [
                    {
                        "element": "Bi",
                        "occu": 1
                    }
                ],
                "abc": [
                    0.0,
                    0.0,
                    0.0
                ],
                "xyz": [
                    0.0,
                    0.0,
                    0.0
                ],
                "label": "Bi",
                "properties": {}
            },
            {
                "species": [
                    {
                        "element": "Bi",
                        "occu": 1
                    }
                ],
                "abc": [
                    0.5,
                    0.5,
                    0.5
                ],
                "xyz": [
                    0.0,
                    -4.950000001002763e-07,
                    6.06220419
                ],
                "label": "Bi",
                "properties": {}
            },
            {
                "species": [
                    {
                        "element": "O",
                        "occu": 1
                    }
                ],
                "abc": [
                    0.91726095,
                    0.71950872,
                    0.05163421
                ],
                "xyz": [
                    1.0287859442741007,
                    4.606033504389632,
                    6.823632717165505
                ],
                "label": "O",
                "properties": {}
            },
            {
                "species": [
                    {
                        "element": "O",
                        "occu": 1
                    }
                ],
                "abc": [
                    0.71950872,
                    0.05163421,
                    0.91726095
                ],
                "xyz": [
                    3.4745494825871366,
                    -3.19397236265416,
                    6.823632717165505
                ],
                "label": "O",
                "properties": {}
            },
            {
                "species": [
                    {
                        "element": "O",
                        "occu": 1
                    }
                ],
                "abc": [
                    0.94836579,
                    0.08273905,
                    0.28049128
                ],
                "xyz": [
                    4.503335426861238,
                    1.4120618232553126,
                    5.300775662834495
                ],
                "label": "O",
                "properties": {}
            },
            {
                "species": [
                    {
                        "element": "O",
                        "occu": 1
                    }
                ],
                "abc": [
                    0.05163421,
                    0.91726095,
                    0.71950872
                ],
                "xyz": [
                    -4.503335426861238,
                    -1.412062813255313,
                    6.823632717165505
                ],
                "label": "O",
                "properties": {}
            },
            {
                "species": [
                    {
                        "element": "O",
                        "occu": 1
                    }
                ],
                "abc": [
                    0.58273905,
                    0.44836579,
                    0.78049128
                ],
                "xyz": [
                    0.6990632731387625,
                    -1.5915446717446877,
                    7.321510392834496
                ],
                "label": "O",
                "properties": {}
            },
            {
                "species": [
                    {
                        "element": "O",
                        "occu": 1
                    }
                ],
                "abc": [
                    0.78049128,
                    0.58273905,
                    0.44836579
                ],
                "xyz": [
                    1.0287859442741007,
                    1.4011780006103685,
                    7.321510392834496
                ],
                "label": "O",
                "properties": {}
            },
            {
                "species": [
                    {
                        "element": "O",
                        "occu": 1
                    }
                ],
                "abc": [
                    0.08273905,
                    0.28049128,
                    0.94836579
                ],
                "xyz": [
                    -1.028785944274101,
                    -4.6060344943896325,
                    5.300775662834495
                ],
                "label": "O",
                "properties": {}
            },
            {
                "species": [
                    {
                        "element": "O",
                        "occu": 1
                    }
                ],
                "abc": [
                    0.28049128,
                    0.94836579,
                    0.08273905
                ],
                "xyz": [
                    -3.474549482587137,
                    3.1939713726541603,
                    5.3007756628344955
                ],
                "label": "O",
                "properties": {}
            },
            {
                "species": [
                    {
                        "element": "O",
                        "occu": 1
                    }
                ],
                "abc": [
                    0.55163421,
                    0.21950872,
                    0.41726095
                ],
                "xyz": [
                    1.727849217412863,
                    -0.19036586765416041,
                    4.802897987165505
                ],
                "label": "O",
                "properties": {}
            },
            {
                "species": [
                    {
                        "element": "O",
                        "occu": 1
                    }
                ],
                "abc": [
                    0.41726095,
                    0.55163421,
                    0.21950872
                ],
                "xyz": [
                    -0.699063273138762,
                    1.5915436817446877,
                    4.802897987165505
                ],
                "label": "O",
                "properties": {}
            },
            {
                "species": [
                    {
                        "element": "O",
                        "occu": 1
                    }
                ],
                "abc": [
                    0.21950872,
                    0.41726095,
                    0.55163421
                ],
                "xyz": [
                    -1.028785944274101,
                    -1.4011789906103682,
                    4.802897987165505
                ],
                "label": "O",
                "properties": {}
            },
            {
                "species": [
                    {
                        "element": "O",
                        "occu": 1
                    }
                ],
                "abc": [
                    0.44836579,
                    0.78049128,
                    0.58273905
                ],
                "xyz": [
                    -1.7278492174128632,
                    0.19036487765416066,
                    7.321510392834496
                ],
                "label": "O",
                "properties": {}
            }
        ]
    },
    "spacegroup": {
        "source": "spglib",
        "symbol": "R-3c",
        "number": 167,
        "point_group": "-3m",
        "crystal_system": "trigonal",
        "hall": "-R 3 2\"c"
    },
    "dielectric": {
        "epsilon_ionic": [
            [
                12.10517569,
                -0.0,
                -1e-08
            ],
            [
                -0.0,
                12.10517184,
                6.82e-06
            ],
            [
                -1e-08,
                6.82e-06,
                8.55492868
            ]
        ],
        "epsilon_ionic_avg": 10.921758736666666,
        "epsilon_ionic_eig": [
            8.554928679986897,
            12.105175690000003,
            12.1051718400131
        ],
        "epsilon_electronic": [
            [
                4.42399118,
                0.0,
                0.0
            ],
            [
                -0.0,
                4.4239908,
                -3.5e-07
            ],
            [
                -0.0,
                -3.5e-07,
                4.20904375
            ]
        ],
        "epsilon_electronic_avg": 4.352341910000001,
        "epsilon_electronic_eig": [
            4.20904374999943,
            4.4239908000005705,
            4.42399118
        ]
    },
    "phonon": {
        "lowest_freq": -0.09671078117629327,
        "frequency": [
            -0.09671078117629327,
            -0.0499908051418484,
            -0.0499908029418426,
            2.3276528924061077,
            2.3565829794425346,
            2.356583088337547,
            2.5670105147908435,
            2.6869537557682404,
            2.7619909329365613,
            2.761991065666971,
            2.836475951095213,
            2.9334174155480865,
            2.9334174155480865,
            3.306457217498035,
            3.306457291414046,
            3.4794771100933755,
            3.5014343126051783,
            3.501434445225185,
            3.8055262308616116,
            3.8055262533394614,
            4.003956651877656,
            4.155914697575944,
            4.196774955350114,
            4.411160668636465,
            4.4111608514727925,
            4.771660455616623,
            4.771660637444407,
            4.931767479401069,
            4.9317675487798835,
            5.109414396762775,
            5.109414420679423,
            5.298291811718319,
            5.327180555113891,
            5.327180578052867,
            5.480923937177823,
            6.84027085431425,
            6.840271086556637,
            6.861695658613866,
            6.922344675193734,
            7.0772756908660295,
            7.551020515234311,
            7.551020741799831,
            7.667320668057989,
            7.6673208593113396,
            8.925766576311743,
            8.954451407149673,
            8.9544518165552,
            8.986004854962474,
            9.402777689459779,
            9.402777884402276,
            9.603703904315767,
            9.60370423514663,
            10.219913415744166,
            10.245517423941097,
            13.60375747376294,
            13.603757761213084,
            13.700250973179912,
            13.70025099101901,
            13.78180689940772,
            14.495225611674485,
            14.495225847724747,
            14.613474705622865,
            14.858283893843023,
            14.858284041881731,
            16.39783902823366,
            16.458301915328953
        ]
    },
    "born_effective_charge": {
        "avg_abs_trace": 2.4522098484848485,
        "tensors": [
            [
                [
                    2.78209,
                    -0.05872,
                    0.38
                ],
                [
                    -0.05871,
                    2.71443,
                    -0.21941
                ],
                [
                    0.39583,
                    -0.22846,
                    2.57555
                ]
            ],
            [
                [
                    2.78215,
                    -0.05851,
                    0.38004
                ],
                [
                    -0.0585,
                    2.71446,
                    -0.21939
                ],
                [
                    0.39577,
                    -0.22857,
                    2.57555
                ]
            ],
            [
                [
                    2.6807,
                    -0.0,
                    0.0
                ],
                [
                    7e-05,
                    2.81595,
                    0.43881
                ],
                [
                    -7e-05,
                    0.45703,
                    2.57555
                ]
            ],
            [
                [
                    2.78215,
                    0.05851,
                    -0.38004
                ],
                [
                    0.05871,
                    2.71443,
                    -0.21941
                ],
                [
                    -0.39583,
                    -0.22846,
                    2.57555
                ]
            ],
            [
                [
                    2.68052,
                    0.0,
                    0.0
                ],
                [
                    -7e-05,
                    2.81595,
                    0.43881
                ],
                [
                    7e-05,
                    0.45703,
                    2.57555
                ]
            ],
            [
                [
                    2.78209,
                    0.05872,
                    -0.38
                ],
                [
                    0.0585,
                    2.71446,
                    -0.21939
                ],
                [
                    -0.39577,
                    -0.22857,
                    2.57555
                ]
            ],
            [
                [
                    0.86633,
                    -0.0,
                    0.0
                ],
                [
                    5e-05,
                    0.86635,
                    -0.0
                ],
                [
                    0.0,
                    -0.0,
                    1.32516
                ]
            ],
            [
                [
                    0.86636,
                    -0.0,
                    0.0
                ],
                [
                    -5e-05,
                    0.86635,
                    -0.0
                ],
                [
                    0.0,
                    -0.0,
                    1.32516
                ]
            ],
            [
                [
                    4.65524,
                    0.10978,
                    -0.0
                ],
                [
                    -0.10978,
                    4.65524,
                    -0.0
                ],
                [
                    0.0,
                    -0.0,
                    3.8768
                ]
            ],
            [
                [
                    4.65524,
                    -0.10978,
                    0.0
                ],
                [
                    0.10978,
                    4.65524,
                    -0.0
                ],
                [
                    0.0,
                    -0.0,
                    3.8768
                ]
            ],
            [
                [
                    -2.21321,
                    0.17136,
                    0.32326
                ],
                [
                    0.29628,
                    -2.3756,
                    -0.43464
                ],
                [
                    0.34091,
                    -0.47364,
                    -2.15472
                ]
            ],
            [
                [
                    -2.53759,
                    -0.10913,
                    -0.53805
                ],
                [
                    0.01604,
                    -2.05121,
                    -0.06263
                ],
                [
                    -0.58064,
                    -0.05842,
                    -2.15472
                ]
            ],
            [
                [
                    -2.13248,
                    -0.24969,
                    0.21472
                ],
                [
                    -0.12475,
                    -2.45662,
                    0.49731
                ],
                [
                    0.23976,
                    0.53198,
                    -2.15481
                ]
            ],
            [
                [
                    -2.13236,
                    -0.24989,
                    0.21473
                ],
                [
                    -0.12471,
                    -2.45617,
                    0.49722
                ],
                [
                    0.23973,
                    0.53206,
                    -2.15472
                ]
            ],
            [
                [
                    -2.13236,
                    0.24989,
                    -0.21473
                ],
                [
                    0.12475,
                    -2.45662,
                    0.49731
                ],
                [
                    -0.23976,
                    0.53198,
                    -2.15481
                ]
            ],
            [
                [
                    -2.21321,
                    -0.17136,
                    -0.32326
                ],
                [
                    -0.29662,
                    -2.37556,
                    -0.43455
                ],
                [
                    -0.34083,
                    -0.47362,
                    -2.15481
                ]
            ],
            [
                [
                    -2.21324,
                    0.1714,
                    0.3233
                ],
                [
                    0.29662,
                    -2.37556,
                    -0.43455
                ],
                [
                    0.34083,
                    -0.47362,
                    -2.15481
                ]
            ],
            [
                [
                    -2.53755,
                    -0.10924,
                    -0.53796
                ],
                [
                    0.01571,
                    -2.05127,
                    -0.06272
                ],
                [
                    -0.58058,
                    -0.05835,
                    -2.15481
                ]
            ],
            [
                [
                    -2.53755,
                    0.10924,
                    0.53796
                ],
                [
                    -0.01604,
                    -2.05121,
                    -0.06263
                ],
                [
                    0.58064,
                    -0.05842,
                    -2.15472
                ]
            ],
            [
                [
                    -2.13248,
                    0.24969,
                    -0.21472
                ],
                [
                    0.12471,
                    -2.45617,
                    0.49722
                ],
                [
                    -0.23973,
                    0.53206,
                    -2.15472
                ]
            ],
            [
                [
                    -2.21324,
                    -0.1714,
                    -0.3233
                ],
                [
                    -0.29628,
                    -2.3756,
                    -0.43464
                ],
                [
                    -0.34091,
                    -0.47364,
                    -2.15472
                ]
            ],
            [
                [
                    -2.53759,
                    0.10913,
                    0.53805
                ],
                [
                    -0.01571,
                    -2.05127,
                    -0.06272
                ],
                [
                    0.58058,
                    -0.05835,
                    -2.15481
                ]
            ]
        ]
    },
    "band_gap": 1.8860000000000001,
    "is_direct": false,
    "formula": "Ba3NaBiO6"
}