{
    "mp_id": "mp-540905",
    "nelements": 4,
    "nsites": 32,
    "elements": [
        "Al",
        "Ge",
        "O",
        "Y"
    ],
    "structure": {
        "@module": "pymatgen.core.structure",
        "@class": "Structure",
        "charge": null,
        "lattice": {
            "matrix": [
                [
                    7.25110586,
                    0.0,
                    0.0
                ],
                [
                    0.0,
                    8.3416939,
                    0.0
                ],
                [
                    0.0,
                    0.0,
                    5.63223535
                ]
            ],
            "a": 7.25110586,
            "b": 8.3416939,
            "c": 5.63223535,
            "alpha": 90.0,
            "beta": 90.0,
            "gamma": 90.0,
            "volume": 340.674234591185
        },
        "sites": [
            {
                "species": [
                    {
                        "element": "Y",
                        "occu": 1
                    }
                ],
                "abc": [
                    0.35772485,
                    0.32597677,
                    0.0
                ],
                "xyz": [
                    2.593900756102621,
                    2.719198433850703,
                    0.0
                ],
                "label": "Y",
                "properties": {}
            },
            {
                "species": [
                    {
                        "element": "Y",
                        "occu": 1
                    }
                ],
                "abc": [
                    0.64227515,
                    0.67402323,
                    0.0
                ],
                "xyz": [
                    4.657205103897379,
                    5.622495466149296,
                    0.0
                ],
                "label": "Y",
                "properties": {}
            },
            {
                "species": [
                    {
                        "element": "Y",
                        "occu": 1
                    }
                ],
                "abc": [
                    0.85772485,
                    0.17402323,
                    0.0
                ],
                "xyz": [
                    6.219453686102621,
                    1.451648516149297,
                    0.0
                ],
                "label": "Y",
                "properties": {}
            },
            {
                "species": [
                    {
                        "element": "Y",
                        "occu": 1
                    }
                ],
                "abc": [
                    0.14227515,
                    0.82597677,
                    0.0
                ],
                "xyz": [
                    1.031652173897379,
                    6.890045383850703,
                    0.0
                ],
                "label": "Y",
                "properties": {}
            },
            {
                "species": [
                    {
                        "element": "Al",
                        "occu": 1
                    }
                ],
                "abc": [
                    0.5,
                    0.0,
                    0.24832245
                ],
                "xyz": [
                    3.62555293,
                    0.0,
                    1.3986104810886075
                ],
                "label": "Al",
                "properties": {}
            },
            {
                "species": [
                    {
                        "element": "Al",
                        "occu": 1
                    }
                ],
                "abc": [
                    0.0,
                    0.5,
                    0.75167755
                ],
                "xyz": [
                    0.0,
                    4.17084695,
                    4.2336248689113924
                ],
                "label": "Al",
                "properties": {}
            },
            {
                "species": [
                    {
                        "element": "Al",
                        "occu": 1
                    }
                ],
                "abc": [
                    0.5,
                    0.0,
                    0.75167755
                ],
                "xyz": [
                    3.62555293,
                    0.0,
                    4.2336248689113924
                ],
                "label": "Al",
                "properties": {}
            },
            {
                "species": [
                    {
                        "element": "Al",
                        "occu": 1
                    }
                ],
                "abc": [
                    0.0,
                    0.5,
                    0.24832245
                ],
                "xyz": [
                    0.0,
                    4.17084695,
                    1.3986104810886075
                ],
                "label": "Al",
                "properties": {}
            },
            {
                "species": [
                    {
                        "element": "Ge",
                        "occu": 1
                    }
                ],
                "abc": [
                    0.1192629,
                    0.14529712,
                    0.5
                ],
                "xyz": [
                    0.864787913070594,
                    1.2120240995915679,
                    2.816117675
                ],
                "label": "Ge",
                "properties": {}
            },
            {
                "species": [
                    {
                        "element": "Ge",
                        "occu": 1
                    }
                ],
                "abc": [
                    0.8807371,
                    0.85470288,
                    0.5
                ],
                "xyz": [
                    6.386317946929406,
                    7.129669800408432,
                    2.816117675
                ],
                "label": "Ge",
                "properties": {}
            },
            {
                "species": [
                    {
                        "element": "Ge",
                        "occu": 1
                    }
                ],
                "abc": [
                    0.6192629,
                    0.35470288,
                    0.5
                ],
                "xyz": [
                    4.490340843070594,
                    2.9588228504084317,
                    2.816117675
                ],
                "label": "Ge",
                "properties": {}
            },
            {
                "species": [
                    {
                        "element": "Ge",
                        "occu": 1
                    }
                ],
                "abc": [
                    0.3807371,
                    0.64529712,
                    0.5
                ],
                "xyz": [
                    2.760765016929406,
                    5.382871049591567,
                    2.816117675
                ],
                "label": "Ge",
                "properties": {}
            },
            {
                "species": [
                    {
                        "element": "O",
                        "occu": 1
                    }
                ],
                "abc": [
                    0.33720218,
                    0.05412263,
                    0.0
                ],
                "xyz": [
                    2.445088703402775,
                    0.45147441252295695,
                    0.0
                ],
                "label": "O",
                "properties": {}
            },
            {
                "species": [
                    {
                        "element": "O",
                        "occu": 1
                    }
                ],
                "abc": [
                    0.66279782,
                    0.94587737,
                    0.0
                ],
                "xyz": [
                    4.806017156597225,
                    7.890219487477043,
                    0.0
                ],
                "label": "O",
                "properties": {}
            },
            {
                "species": [
                    {
                        "element": "O",
                        "occu": 1
                    }
                ],
                "abc": [
                    0.83720218,
                    0.44587737,
                    0.0
                ],
                "xyz": [
                    6.070641633402775,
                    3.7193725374770428,
                    0.0
                ],
                "label": "O",
                "properties": {}
            },
            {
                "species": [
                    {
                        "element": "O",
                        "occu": 1
                    }
                ],
                "abc": [
                    0.16279782,
                    0.55412263,
                    0.0
                ],
                "xyz": [
                    1.1804642265972252,
                    4.622321362522956,
                    0.0
                ],
                "label": "O",
                "properties": {}
            },
            {
                "species": [
                    {
                        "element": "O",
                        "occu": 1
                    }
                ],
                "abc": [
                    0.3489435,
                    0.07031708,
                    0.5
                ],
                "xyz": [
                    2.53022625765891,
                    0.586563557301812,
                    2.816117675
                ],
                "label": "O",
                "properties": {}
            },
            {
                "species": [
                    {
                        "element": "O",
                        "occu": 1
                    }
                ],
                "abc": [
                    0.6510565,
                    0.92968292,
                    0.5
                ],
                "xyz": [
                    4.72087960234109,
                    7.755130342698187,
                    2.816117675
                ],
                "label": "O",
                "properties": {}
            },
            {
                "species": [
                    {
                        "element": "O",
                        "occu": 1
                    }
                ],
                "abc": [
                    0.8489435,
                    0.42968292,
                    0.5
                ],
                "xyz": [
                    6.15577918765891,
                    3.584283392698188,
                    2.816117675
                ],
                "label": "O",
                "properties": {}
            },
            {
                "species": [
                    {
                        "element": "O",
                        "occu": 1
                    }
                ],
                "abc": [
                    0.1510565,
                    0.57031708,
                    0.5
                ],
                "xyz": [
                    1.0953266723410902,
                    4.757410507301812,
                    2.816117675
                ],
                "label": "O",
                "properties": {}
            },
            {
                "species": [
                    {
                        "element": "O",
                        "occu": 1
                    }
                ],
                "abc": [
                    0.1065916,
                    0.28857321,
                    0.24991025
                ],
                "xyz": [
                    0.772906975386776,
                    2.407189385560419,
                    1.4075533443773376
                ],
                "label": "O",
                "properties": {}
            },
            {
                "species": [
                    {
                        "element": "O",
                        "occu": 1
                    }
                ],
                "abc": [
                    0.8934084,
                    0.71142679,
                    0.24991025
                ],
                "xyz": [
                    6.478198884613224,
                    5.93450451443958,
                    1.4075533443773376
                ],
                "label": "O",
                "properties": {}
            },
            {
                "species": [
                    {
                        "element": "O",
                        "occu": 1
                    }
                ],
                "abc": [
                    0.6065916,
                    0.21142679,
                    0.75008975
                ],
                "xyz": [
                    4.398459905386776,
                    1.7636575644395809,
                    4.224682005622663
                ],
                "label": "O",
                "properties": {}
            },
            {
                "species": [
                    {
                        "element": "O",
                        "occu": 1
                    }
                ],
                "abc": [
                    0.3934084,
                    0.78857321,
                    0.75008975
                ],
                "xyz": [
                    2.852645954613224,
                    6.578036335560419,
                    4.224682005622663
                ],
                "label": "O",
                "properties": {}
            },
            {
                "species": [
                    {
                        "element": "O",
                        "occu": 1
                    }
                ],
                "abc": [
                    0.8934084,
                    0.71142679,
                    0.75008975
                ],
                "xyz": [
                    6.478198884613224,
                    5.93450451443958,
                    4.224682005622663
                ],
                "label": "O",
                "properties": {}
            },
            {
                "species": [
                    {
                        "element": "O",
                        "occu": 1
                    }
                ],
                "abc": [
                    0.1065916,
                    0.28857321,
                    0.75008975
                ],
                "xyz": [
                    0.772906975386776,
                    2.407189385560419,
                    4.224682005622663
                ],
                "label": "O",
                "properties": {}
            },
            {
                "species": [
                    {
                        "element": "O",
                        "occu": 1
                    }
                ],
                "abc": [
                    0.3934084,
                    0.78857321,
                    0.24991025
                ],
                "xyz": [
                    2.852645954613224,
                    6.578036335560419,
                    1.4075533443773376
                ],
                "label": "O",
                "properties": {}
            },
            {
                "species": [
                    {
                        "element": "O",
                        "occu": 1
                    }
                ],
                "abc": [
                    0.6065916,
                    0.21142679,
                    0.24991025
                ],
                "xyz": [
                    4.398459905386776,
                    1.7636575644395809,
                    1.4075533443773376
                ],
                "label": "O",
                "properties": {}
            },
            {
                "species": [
                    {
                        "element": "O",
                        "occu": 1
                    }
                ],
                "abc": [
                    0.0,
                    0.0,
                    0.28326928
                ],
                "xyz": [
                    0.0,
                    0.0,
                    1.595439252385048
                ],
                "label": "O",
                "properties": {}
            },
            {
                "species": [
                    {
                        "element": "O",
                        "occu": 1
                    }
                ],
                "abc": [
                    0.5,
                    0.5,
                    0.71673072
                ],
                "xyz": [
                    3.62555293,
                    4.17084695,
                    4.036796097614952
                ],
                "label": "O",
                "properties": {}
            },
            {
                "species": [
                    {
                        "element": "O",
                        "occu": 1
                    }
                ],
                "abc": [
                    0.0,
                    0.0,
                    0.71673072
                ],
                "xyz": [
                    0.0,
                    0.0,
                    4.036796097614952
                ],
                "label": "O",
                "properties": {}
            },
            {
                "species": [
                    {
                        "element": "O",
                        "occu": 1
                    }
                ],
                "abc": [
                    0.5,
                    0.5,
                    0.28326928
                ],
                "xyz": [
                    3.62555293,
                    4.17084695,
                    1.595439252385048
                ],
                "label": "O",
                "properties": {}
            }
        ]
    },
    "spacegroup": {
        "source": "spglib",
        "symbol": "Pbam",
        "number": 55,
        "point_group": "mmm",
        "crystal_system": "orthorhombic",
        "hall": "-P 2 2ab"
    },
    "dielectric": {
        "epsilon_ionic": [
            [
                7.86683638,
                -0.0,
                0.0
            ],
            [
                -0.0,
                8.7683515,
                -0.0
            ],
            [
                0.0,
                -0.0,
                7.23881597
            ]
        ],
        "epsilon_ionic_avg": 7.958001283333334,
        "epsilon_ionic_eig": [
            7.86683638,
            8.7683515,
            7.23881597
        ],
        "epsilon_electronic": [
            [
                3.84226702,
                0.0,
                0.0
            ],
            [
                0.0,
                4.08983869,
                0.0
            ],
            [
                0.0,
                0.0,
                3.9686621
            ]
        ],
        "epsilon_electronic_avg": 3.9669226033333334,
        "epsilon_electronic_eig": [
            3.84226702,
            4.08983869,
            3.9686621
        ]
    },
    "phonon": {
        "lowest_freq": -0.04571493378547376,
        "frequency": [
            -0.04571493378547376,
            -0.043024280520985905,
            -0.030468373601519563,
            3.811944926111612,
            4.107853643726474,
            4.430457599714959,
            4.448060819525219,
            4.4702859247682385,
            4.803929919486335,
            5.032961072815378,
            5.4854887167915685,
            5.522497001421988,
            5.567620566688491,
            5.630883198075711,
            5.725556348139468,
            5.859817473655024,
            5.898725060635218,
            5.957835065611909,
            6.151123036748566,
            6.28246873445447,
            6.420204973630832,
            6.577014616023891,
            6.913949154319683,
            6.935559956359851,
            6.9928904985606435,
            7.050280374101581,
            7.230458336363017,
            7.4581659349239064,
            8.13709640226051,
            8.715533672957235,
            8.878082875592535,
            9.009503721848644,
            9.076104174529675,
            9.214731430487141,
            9.341297272483995,
            9.402790841571218,
            9.43765160011311,
            9.916177900102339,
            10.228941822973923,
            10.385272777617375,
            10.39522322441954,
            10.858231522652975,
            10.893330333413784,
            11.481345269091864,
            11.504470750709789,
            11.51391176728381,
            11.621185322201253,
            11.958839124578642,
            12.19123304014467,
            12.211658323976437,
            12.391577532900747,
            12.494975513525747,
            12.513479808256921,
            13.047342781057452,
            13.18723934645833,
            13.725427582914032,
            13.948590737145823,
            14.026360863099919,
            14.282716740913525,
            14.412040450674207,
            14.503380801623912,
            14.516272515149605,
            15.100251687971864,
            15.192193332674874,
            15.494788912710868,
            15.49878097623168,
            15.73475032450191,
            15.99468355240029,
            16.012628503099815,
            16.061317048176164,
            16.114672570338026,
            16.80260753556574,
            17.020850723853123,
            17.165533745719785,
            17.45838156897306,
            17.6214187037068,
            17.847950167457128,
            18.010966978911398,
            18.276950533764566,
            18.31416641460791,
            19.000686952881612,
            19.787124070381097,
            19.892913319017115,
            19.942186127638905,
            20.189673913124107,
            20.296161775286638,
            20.40880023005038,
            20.46002908922533,
            21.222613639058984,
            21.515086272805984,
            21.603369573037877,
            22.270012490363605,
            23.624330359024615,
            23.810643069869375,
            25.87575684483378,
            26.37887736523854
        ]
    },
    "born_effective_charge": {
        "avg_abs_trace": 2.6158633333333334,
        "tensors": [
            [
                [
                    3.95804,
                    -0.111,
                    0.0
                ],
                [
                    0.24216,
                    3.92199,
                    0.0
                ],
                [
                    -5e-05,
                    -0.0,
                    3.52945
                ]
            ],
            [
                [
                    3.95782,
                    -0.11071,
                    0.0
                ],
                [
                    0.24233,
                    3.92212,
                    0.0
                ],
                [
                    5e-05,
                    0.0,
                    3.52945
                ]
            ],
            [
                [
                    3.95804,
                    0.111,
                    0.0
                ],
                [
                    -0.24233,
                    3.92212,
                    0.0
                ],
                [
                    -5e-05,
                    0.0,
                    3.52945
                ]
            ],
            [
                [
                    3.95782,
                    0.11071,
                    0.0
                ],
                [
                    -0.24216,
                    3.92199,
                    0.0
                ],
                [
                    5e-05,
                    -0.0,
                    3.52945
                ]
            ],
            [
                [
                    2.83152,
                    -0.07412,
                    -2e-05
                ],
                [
                    0.17644,
                    3.1153,
                    4e-05
                ],
                [
                    -0.0,
                    -0.0,
                    2.99688
                ]
            ],
            [
                [
                    2.83152,
                    0.07412,
                    2e-05
                ],
                [
                    -0.17644,
                    3.1153,
                    -4e-05
                ],
                [
                    -0.0,
                    -0.0,
                    2.99704
                ]
            ],
            [
                [
                    2.83152,
                    -0.07412,
                    2e-05
                ],
                [
                    0.17644,
                    3.1153,
                    -4e-05
                ],
                [
                    -0.0,
                    -0.0,
                    2.99704
                ]
            ],
            [
                [
                    2.83152,
                    0.07412,
                    -2e-05
                ],
                [
                    -0.17644,
                    3.1153,
                    4e-05
                ],
                [
                    -0.0,
                    -0.0,
                    2.99688
                ]
            ],
            [
                [
                    3.22294,
                    0.1061,
                    0.0
                ],
                [
                    0.19332,
                    3.77816,
                    0.0
                ],
                [
                    4e-05,
                    1e-05,
                    4.03612
                ]
            ],
            [
                [
                    3.22293,
                    0.10607,
                    0.0
                ],
                [
                    0.19343,
                    3.77803,
                    0.0
                ],
                [
                    -4e-05,
                    -1e-05,
                    4.03612
                ]
            ],
            [
                [
                    3.22294,
                    -0.1061,
                    0.0
                ],
                [
                    -0.19343,
                    3.77803,
                    0.0
                ],
                [
                    4e-05,
                    -1e-05,
                    4.03612
                ]
            ],
            [
                [
                    3.22293,
                    -0.10607,
                    0.0
                ],
                [
                    -0.19332,
                    3.77816,
                    0.0
                ],
                [
                    -4e-05,
                    1e-05,
                    4.03612
                ]
            ],
            [
                [
                    -1.9077,
                    -0.09705,
                    0.0
                ],
                [
                    -0.3088,
                    -2.6997,
                    0.0
                ],
                [
                    -5e-05,
                    0.00013,
                    -1.86028
                ]
            ],
            [
                [
                    -1.90773,
                    -0.09712,
                    0.0
                ],
                [
                    -0.30849,
                    -2.69968,
                    0.0
                ],
                [
                    5e-05,
                    -0.00013,
                    -1.86028
                ]
            ],
            [
                [
                    -1.9077,
                    0.09705,
                    0.0
                ],
                [
                    0.30849,
                    -2.69968,
                    0.0
                ],
                [
                    -5e-05,
                    -0.00013,
                    -1.86028
                ]
            ],
            [
                [
                    -1.90773,
                    0.09712,
                    0.0
                ],
                [
                    0.3088,
                    -2.6997,
                    0.0
                ],
                [
                    5e-05,
                    0.00013,
                    -1.86028
                ]
            ],
            [
                [
                    -2.52273,
                    0.50487,
                    0.0
                ],
                [
                    0.33847,
                    -1.58776,
                    0.0
                ],
                [
                    -5e-05,
                    -1e-05,
                    -1.918
                ]
            ],
            [
                [
                    -2.5228,
                    0.50498,
                    0.0
                ],
                [
                    0.33839,
                    -1.58782,
                    0.0
                ],
                [
                    5e-05,
                    1e-05,
                    -1.918
                ]
            ],
            [
                [
                    -2.52273,
                    -0.50487,
                    0.0
                ],
                [
                    -0.33839,
                    -1.58782,
                    0.0
                ],
                [
                    -5e-05,
                    1e-05,
                    -1.918
                ]
            ],
            [
                [
                    -2.5228,
                    -0.50498,
                    0.0
                ],
                [
                    -0.33847,
                    -1.58776,
                    0.0
                ],
                [
                    5e-05,
                    -1e-05,
                    -1.918
                ]
            ],
            [
                [
                    -1.96958,
                    -0.02673,
                    0.05303
                ],
                [
                    0.02264,
                    -2.16686,
                    0.36775
                ],
                [
                    0.11491,
                    0.34612,
                    -2.22104
                ]
            ],
            [
                [
                    -1.96952,
                    -0.02672,
                    -0.05307
                ],
                [
                    0.02267,
                    -2.16702,
                    -0.36769
                ],
                [
                    -0.11491,
                    -0.34612,
                    -2.22104
                ]
            ],
            [
                [
                    -1.96958,
                    0.02673,
                    -0.05303
                ],
                [
                    -0.02267,
                    -2.16702,
                    0.36769
                ],
                [
                    -0.1149,
                    0.34628,
                    -2.22076
                ]
            ],
            [
                [
                    -1.96952,
                    0.02672,
                    0.05307
                ],
                [
                    -0.02264,
                    -2.16686,
                    -0.36775
                ],
                [
                    0.1149,
                    -0.34628,
                    -2.22076
                ]
            ],
            [
                [
                    -1.96952,
                    -0.02672,
                    0.05307
                ],
                [
                    0.02267,
                    -2.16702,
                    0.36769
                ],
                [
                    0.1149,
                    0.34628,
                    -2.22076
                ]
            ],
            [
                [
                    -1.96958,
                    -0.02673,
                    -0.05303
                ],
                [
                    0.02264,
                    -2.16686,
                    -0.36775
                ],
                [
                    -0.1149,
                    -0.34628,
                    -2.22076
                ]
            ],
            [
                [
                    -1.96952,
                    0.02672,
                    -0.05307
                ],
                [
                    -0.02264,
                    -2.16686,
                    0.36775
                ],
                [
                    -0.11491,
                    0.34612,
                    -2.22104
                ]
            ],
            [
                [
                    -1.96958,
                    0.02673,
                    0.05303
                ],
                [
                    -0.02267,
                    -2.16702,
                    -0.36769
                ],
                [
                    0.11491,
                    -0.34612,
                    -2.22104
                ]
            ],
            [
                [
                    -1.6428,
                    -0.20096,
                    8e-05
                ],
                [
                    -0.08729,
                    -2.19409,
                    -1e-05
                ],
                [
                    -0.0,
                    -0.0,
                    -2.34254
                ]
            ],
            [
                [
                    -1.6428,
                    0.20096,
                    -8e-05
                ],
                [
                    0.08729,
                    -2.19409,
                    1e-05
                ],
                [
                    -0.0,
                    -0.0,
                    -2.34235
                ]
            ],
            [
                [
                    -1.6428,
                    -0.20096,
                    -8e-05
                ],
                [
                    -0.08729,
                    -2.19409,
                    1e-05
                ],
                [
                    -0.0,
                    -0.0,
                    -2.34235
                ]
            ],
            [
                [
                    -1.6428,
                    0.20096,
                    8e-05
                ],
                [
                    0.08729,
                    -2.19409,
                    -1e-05
                ],
                [
                    -0.0,
                    -0.0,
                    -2.34254
                ]
            ]
        ]
    },
    "band_gap": 3.8274999999999997,
    "is_direct": false,
    "formula": "YAlGeO5"
}