{
    "mp_id": "mp-560555",
    "nelements": 4,
    "nsites": 21,
    "elements": [
        "Bi",
        "Li",
        "O",
        "Pd"
    ],
    "structure": {
        "@module": "pymatgen.core.structure",
        "@class": "Structure",
        "charge": null,
        "lattice": {
            "matrix": [
                [
                    4.8332838,
                    -2.12038656,
                    -0.00014934
                ],
                [
                    4.8332838,
                    2.12038656,
                    -0.00014934
                ],
                [
                    -2.97165725,
                    0.0,
                    10.62045906
                ]
            ],
            "a": 5.277941973674352,
            "b": 5.277941973674352,
            "c": 11.028367850983829,
            "alpha": 104.28715659909984,
            "beta": 104.28715659909984,
            "gamma": 47.374618887306866,
            "volume": 217.68418070367963
        },
        "sites": [
            {
                "species": [
                    {
                        "element": "Li",
                        "occu": 1
                    }
                ],
                "abc": [
                    0.37811454,
                    0.37811454,
                    0.53809818
                ],
                "xyz": [
                    2.056026403644099,
                    0.0,
                    5.714736755699703
                ],
                "label": "Li",
                "properties": {}
            },
            {
                "species": [
                    {
                        "element": "Li",
                        "occu": 1
                    }
                ],
                "abc": [
                    0.74954405,
                    0.74954405,
                    0.09207371
                ],
                "xyz": [
                    6.971906720646883,
                    0.0,
                    0.9776411937404587
                ],
                "label": "Li",
                "properties": {}
            },
            {
                "species": [
                    {
                        "element": "Li",
                        "occu": 1
                    }
                ],
                "abc": [
                    0.91734129,
                    0.91734129,
                    0.38513687
                ],
                "xyz": [
                    7.723046820078396,
                    0.0,
                    4.090056368835045
                ],
                "label": "Li",
                "properties": {}
            },
            {
                "species": [
                    {
                        "element": "Li",
                        "occu": 1
                    }
                ],
                "abc": [
                    0.08265871,
                    0.08265871,
                    0.61486313
                ],
                "xyz": [
                    -1.0281364700783966,
                    0.0,
                    6.530104011164955
                ],
                "label": "Li",
                "properties": {}
            },
            {
                "species": [
                    {
                        "element": "Li",
                        "occu": 1
                    }
                ],
                "abc": [
                    0.25045595,
                    0.25045595,
                    0.90792629
                ],
                "xyz": [
                    -0.2769963706468821,
                    0.0,
                    9.642519186259541
                ],
                "label": "Li",
                "properties": {}
            },
            {
                "species": [
                    {
                        "element": "Li",
                        "occu": 1
                    }
                ],
                "abc": [
                    0.62188546,
                    0.62188546,
                    0.46190182
                ],
                "xyz": [
                    4.638883946355901,
                    0.0,
                    4.905423624300297
                ],
                "label": "Li",
                "properties": {}
            },
            {
                "species": [
                    {
                        "element": "Li",
                        "occu": 1
                    }
                ],
                "abc": [
                    0.45234769,
                    0.45234769,
                    0.19523841
                ],
                "xyz": [
                    3.792467887533872,
                    0.0,
                    2.073386433136445
                ],
                "label": "Li",
                "properties": {}
            },
            {
                "species": [
                    {
                        "element": "Li",
                        "occu": 1
                    }
                ],
                "abc": [
                    0.54765231,
                    0.54765231,
                    0.80476159
                ],
                "xyz": [
                    2.9024424624661287,
                    0.0,
                    8.546773946863555
                ],
                "label": "Li",
                "properties": {}
            },
            {
                "species": [
                    {
                        "element": "Bi",
                        "occu": 1
                    }
                ],
                "abc": [
                    0.81639475,
                    0.81639475,
                    0.72053303
                ],
                "xyz": [
                    5.7505578366961325,
                    0.0,
                    7.652147705708822
                ],
                "label": "Bi",
                "properties": {}
            },
            {
                "species": [
                    {
                        "element": "Bi",
                        "occu": 1
                    }
                ],
                "abc": [
                    0.18360525,
                    0.18360525,
                    0.27946697
                ],
                "xyz": [
                    0.9443525133038676,
                    0.0,
                    2.968012674291178
                ],
                "label": "Bi",
                "properties": {}
            },
            {
                "species": [
                    {
                        "element": "Pd",
                        "occu": 1
                    }
                ],
                "abc": [
                    0.0,
                    0.0,
                    0.0
                ],
                "xyz": [
                    0.0,
                    0.0,
                    0.0
                ],
                "label": "Pd",
                "properties": {}
            },
            {
                "species": [
                    {
                        "element": "O",
                        "occu": 1
                    }
                ],
                "abc": [
                    0.0373584,
                    0.0373584,
                    0.83228743
                ],
                "xyz": [
                    -2.1121454764155274,
                    0.0,
                    8.839263418260705
                ],
                "label": "O",
                "properties": {}
            },
            {
                "species": [
                    {
                        "element": "O",
                        "occu": 1
                    }
                ],
                "abc": [
                    0.32565874,
                    0.32565874,
                    0.74231728
                ],
                "xyz": [
                    0.9420896978285445,
                    0.0,
                    7.883653014018093
                ],
                "label": "O",
                "properties": {}
            },
            {
                "species": [
                    {
                        "element": "O",
                        "occu": 1
                    }
                ],
                "abc": [
                    0.67434126,
                    0.67434126,
                    0.25768272
                ],
                "xyz": [
                    5.752820652171457,
                    0.0,
                    2.736507365981906
                ],
                "label": "O",
                "properties": {}
            },
            {
                "species": [
                    {
                        "element": "O",
                        "occu": 1
                    }
                ],
                "abc": [
                    0.59698435,
                    0.59698435,
                    0.64135476
                ],
                "xyz": [
                    3.8649030530410506,
                    0.0,
                    6.811303664230468
                ],
                "label": "O",
                "properties": {}
            },
            {
                "species": [
                    {
                        "element": "O",
                        "occu": 1
                    }
                ],
                "abc": [
                    0.40301565,
                    0.40301565,
                    0.35864524
                ],
                "xyz": [
                    2.83000729695895,
                    0.0,
                    3.808856715769532
                ],
                "label": "O",
                "properties": {}
            },
            {
                "species": [
                    {
                        "element": "O",
                        "occu": 1
                    }
                ],
                "abc": [
                    0.78988019,
                    0.78988019,
                    0.91109522
                ],
                "xyz": [
                    4.9279675365825,
                    0.0,
                    9.676013562356545
                ],
                "label": "O",
                "properties": {}
            },
            {
                "species": [
                    {
                        "element": "O",
                        "occu": 1
                    }
                ],
                "abc": [
                    0.9626416,
                    0.9626416,
                    0.16771257
                ],
                "xyz": [
                    8.807055826415526,
                    0.0,
                    1.7808969617392962
                ],
                "label": "O",
                "properties": {}
            },
            {
                "species": [
                    {
                        "element": "O",
                        "occu": 1
                    }
                ],
                "abc": [
                    0.86958218,
                    0.86958218,
                    0.55198016
                ],
                "xyz": [
                    6.765579082405207,
                    0.0,
                    5.862022964406728
                ],
                "label": "O",
                "properties": {}
            },
            {
                "species": [
                    {
                        "element": "O",
                        "occu": 1
                    }
                ],
                "abc": [
                    0.13041782,
                    0.13041782,
                    0.44801984
                ],
                "xyz": [
                    -0.07066873240520799,
                    0.0,
                    4.758137415593272
                ],
                "label": "O",
                "properties": {}
            },
            {
                "species": [
                    {
                        "element": "O",
                        "occu": 1
                    }
                ],
                "abc": [
                    0.21011981,
                    0.21011981,
                    0.08890478
                ],
                "xyz": [
                    1.766942813417501,
                    0.0,
                    0.944146817643456
                ],
                "label": "O",
                "properties": {}
            }
        ]
    },
    "spacegroup": {
        "source": "spglib",
        "symbol": "C2/m",
        "number": 12,
        "point_group": "2/m",
        "crystal_system": "monoclinic",
        "hall": "-C 2y"
    },
    "dielectric": {
        "epsilon_ionic": [
            [
                11.62164814,
                0.0,
                -0.17544341
            ],
            [
                0.0,
                14.15551864,
                -1e-08
            ],
            [
                -0.17544341,
                -1e-08,
                11.0427478
            ]
        ],
        "epsilon_ionic_avg": 12.273304860000001,
        "epsilon_ionic_eig": [
            11.670667748599884,
            10.993728191400113,
            14.15551864
        ],
        "epsilon_electronic": [
            [
                4.4263399,
                0.0,
                0.35249617
            ],
            [
                0.0,
                4.83933405,
                0.0
            ],
            [
                0.3524957,
                0.0,
                5.39949227
            ]
        ],
        "epsilon_electronic_avg": 4.88838874,
        "epsilon_electronic_eig": [
            4.312075200904532,
            5.513756969095468,
            4.83933405
        ]
    },
    "phonon": {
        "lowest_freq": -0.050144013439093145,
        "frequency": [
            -0.050144013439093145,
            -0.017971442625528865,
            -0.012589921171061372,
            2.077977019898415,
            2.2738696014337436,
            3.1051495283485955,
            3.288276385584292,
            3.5741376776882667,
            4.991280958251282,
            5.561235181863821,
            5.904243987471558,
            5.935904698019883,
            6.108534726303536,
            6.118809296980306,
            6.1956930249274516,
            6.413625545323634,
            6.914810004224219,
            7.161028921166133,
            7.389620638245164,
            7.427954046910788,
            7.610185354973021,
            7.7064845763162495,
            7.846275546226706,
            8.060663602380384,
            8.104145748535462,
            8.23492222052675,
            8.486491300895102,
            8.596246243284389,
            8.64738990659109,
            8.720521432713575,
            9.248320832750812,
            9.339080537475276,
            9.668257916251518,
            9.828473827043785,
            9.878997172097149,
            9.963775367866573,
            10.095651694735551,
            10.146142110427677,
            10.714029531430258,
            10.722763206740884,
            10.938182139872078,
            11.668851855650512,
            11.723774258283585,
            12.081653064346282,
            12.344342252481228,
            12.48710520317178,
            12.544883940237112,
            12.816912041593236,
            13.14798488980265,
            13.394048231735479,
            13.808073215646438,
            14.635497468752455,
            15.132498221071712,
            15.836558460815239,
            15.94577752715227,
            16.570084069956927,
            16.718532374785372,
            17.042736438277103,
            17.045690740557635,
            17.89383198696881,
            17.89835587848612,
            18.544611947556792,
            18.770068301350538
        ]
    },
    "born_effective_charge": {
        "avg_abs_trace": 1.8077709523809526,
        "tensors": [
            [
                [
                    1.17198,
                    0.0,
                    0.39981
                ],
                [
                    -3e-05,
                    1.03087,
                    6e-05
                ],
                [
                    0.24688,
                    0.0,
                    1.45802
                ]
            ],
            [
                [
                    1.33404,
                    0.0,
                    -0.20033
                ],
                [
                    -0.00013,
                    1.04009,
                    7e-05
                ],
                [
                    -0.12367,
                    0.0,
                    0.95194
                ]
            ],
            [
                [
                    1.15561,
                    0.0,
                    -0.04547
                ],
                [
                    -0.0001,
                    1.02689,
                    -8e-05
                ],
                [
                    -0.4072,
                    0.0,
                    1.47663
                ]
            ],
            [
                [
                    1.15562,
                    0.0,
                    -0.04546
                ],
                [
                    0.0001,
                    1.02689,
                    8e-05
                ],
                [
                    -0.40723,
                    0.0,
                    1.47659
                ]
            ],
            [
                [
                    1.33404,
                    0.0,
                    -0.20032
                ],
                [
                    0.00013,
                    1.04009,
                    -7e-05
                ],
                [
                    -0.12369,
                    0.0,
                    0.95195
                ]
            ],
            [
                [
                    1.17197,
                    0.0,
                    0.39982
                ],
                [
                    3e-05,
                    1.03087,
                    -6e-05
                ],
                [
                    0.24693,
                    0.0,
                    1.45798
                ]
            ],
            [
                [
                    1.29306,
                    0.0,
                    -0.12989
                ],
                [
                    7e-05,
                    1.10758,
                    4e-05
                ],
                [
                    0.05559,
                    0.0,
                    0.7969
                ]
            ],
            [
                [
                    1.29308,
                    0.0,
                    -0.1299
                ],
                [
                    -7e-05,
                    1.10758,
                    -4e-05
                ],
                [
                    0.05553,
                    0.0,
                    0.79699
                ]
            ],
            [
                [
                    3.47577,
                    0.0,
                    0.10789
                ],
                [
                    -0.00011,
                    5.91422,
                    -3e-05
                ],
                [
                    0.40903,
                    0.0,
                    4.39545
                ]
            ],
            [
                [
                    3.47565,
                    0.0,
                    0.10785
                ],
                [
                    0.00011,
                    5.91422,
                    3e-05
                ],
                [
                    0.40872,
                    0.0,
                    4.39519
                ]
            ],
            [
                [
                    1.34652,
                    0.0,
                    -0.17741
                ],
                [
                    -0.0,
                    -0.51188,
                    0.0
                ],
                [
                    -0.15809,
                    0.0,
                    0.85239
                ]
            ],
            [
                [
                    -1.69049,
                    0.0,
                    0.29634
                ],
                [
                    -0.00024,
                    -1.24462,
                    0.00021
                ],
                [
                    0.14846,
                    0.0,
                    -1.71088
                ]
            ],
            [
                [
                    -1.37745,
                    0.0,
                    0.0476
                ],
                [
                    -5e-05,
                    -4.10265,
                    -0.0002
                ],
                [
                    -0.07314,
                    0.0,
                    -1.42589
                ]
            ],
            [
                [
                    -1.37733,
                    0.0,
                    0.04754
                ],
                [
                    5e-05,
                    -4.10265,
                    0.0002
                ],
                [
                    -0.07332,
                    0.0,
                    -1.42564
                ]
            ],
            [
                [
                    -2.26873,
                    0.0,
                    -0.40067
                ],
                [
                    -0.00011,
                    -1.58861,
                    -5e-05
                ],
                [
                    -0.33987,
                    0.0,
                    -2.1137
                ]
            ],
            [
                [
                    -2.26885,
                    0.0,
                    -0.40068
                ],
                [
                    0.00011,
                    -1.58861,
                    5e-05
                ],
                [
                    -0.34001,
                    0.0,
                    -2.11386
                ]
            ],
            [
                [
                    -1.98875,
                    0.0,
                    -0.13757
                ],
                [
                    0.00012,
                    -1.29131,
                    1e-05
                ],
                [
                    -0.22097,
                    0.0,
                    -1.44856
                ]
            ],
            [
                [
                    -1.6904,
                    0.0,
                    0.29625
                ],
                [
                    0.00024,
                    -1.24462,
                    -0.00021
                ],
                [
                    0.14808,
                    0.0,
                    -1.71084
                ]
            ],
            [
                [
                    -1.77822,
                    0.0,
                    0.15087
                ],
                [
                    0.00023,
                    -1.63651,
                    -1e-05
                ],
                [
                    0.38459,
                    0.0,
                    -2.80649
                ]
            ],
            [
                [
                    -1.77849,
                    0.0,
                    0.15129
                ],
                [
                    -0.00023,
                    -1.63651,
                    1e-05
                ],
                [
                    0.38458,
                    0.0,
                    -2.80597
                ]
            ],
            [
                [
                    -1.98862,
                    0.0,
                    -0.13755
                ],
                [
                    -0.00012,
                    -1.29131,
                    -1e-05
                ],
                [
                    -0.22119,
                    0.0,
                    -1.44822
                ]
            ]
        ]
    },
    "band_gap": 1.2343999999999995,
    "is_direct": false,
    "formula": "Li8Bi2PdO10"
}