{
    "mp_id": "mp-556104",
    "nelements": 3,
    "nsites": 18,
    "elements": [
        "Cr",
        "La",
        "O"
    ],
    "structure": {
        "@module": "pymatgen.core.structure",
        "@class": "Structure",
        "charge": null,
        "lattice": {
            "matrix": [
                [
                    7.16102007,
                    -2.18468858,
                    0.00149738
                ],
                [
                    7.16102007,
                    2.18468858,
                    0.00149738
                ],
                [
                    -2.48405636,
                    0.0,
                    7.99067283
                ]
            ],
            "a": 7.4868601480642125,
            "b": 7.4868601480642125,
            "c": 8.367878361673087,
            "alpha": 106.4838778061217,
            "beta": 106.4838778061217,
            "gamma": 33.931865006054345,
            "volume": 250.03799285647747
        },
        "sites": [
            {
                "species": [
                    {
                        "element": "La",
                        "occu": 1
                    }
                ],
                "abc": [
                    0.33875758,
                    0.32231919,
                    0.9153736
                ],
                "xyz": [
                    2.460144404924678,
                    -0.03591276290658629,
                    7.315440837953151
                ],
                "label": "La",
                "properties": {}
            },
            {
                "species": [
                    {
                        "element": "La",
                        "occu": 1
                    }
                ],
                "abc": [
                    0.67768081,
                    0.66124242,
                    0.5846264
                ],
                "xyz": [
                    8.135811195075323,
                    -0.03591276290658629,
                    4.67356316704685
                ],
                "label": "La",
                "properties": {}
            },
            {
                "species": [
                    {
                        "element": "La",
                        "occu": 1
                    }
                ],
                "abc": [
                    0.32231919,
                    0.33875758,
                    0.4153736
                ],
                "xyz": [
                    3.7021725849246776,
                    0.03591276290658629,
                    3.320104422953151
                ],
                "label": "La",
                "properties": {}
            },
            {
                "species": [
                    {
                        "element": "La",
                        "occu": 1
                    }
                ],
                "abc": [
                    0.66124242,
                    0.67768081,
                    0.0846264
                ],
                "xyz": [
                    9.377839375075324,
                    0.03591276290658629,
                    0.6782267520468495
                ],
                "label": "La",
                "properties": {}
            },
            {
                "species": [
                    {
                        "element": "Cr",
                        "occu": 1
                    }
                ],
                "abc": [
                    0.95982625,
                    0.04017375,
                    0.75
                ],
                "xyz": [
                    5.2979778,
                    -2.0091543143184496,
                    5.9945020025
                ],
                "label": "Cr",
                "properties": {}
            },
            {
                "species": [
                    {
                        "element": "Cr",
                        "occu": 1
                    }
                ],
                "abc": [
                    0.04017375,
                    0.95982625,
                    0.25
                ],
                "xyz": [
                    6.54000598,
                    2.0091543143184496,
                    1.9991655875
                ],
                "label": "Cr",
                "properties": {}
            },
            {
                "species": [
                    {
                        "element": "O",
                        "occu": 1
                    }
                ],
                "abc": [
                    0.22275762,
                    0.26416011,
                    0.1217894
                ],
                "xyz": [
                    3.184295903318257,
                    0.09045154708656417,
                    0.9739083504325495
                ],
                "label": "O",
                "properties": {}
            },
            {
                "species": [
                    {
                        "element": "O",
                        "occu": 1
                    }
                ],
                "abc": [
                    0.26377293,
                    0.73340571,
                    0.0899965
                ],
                "xyz": [
                    6.917259876212565,
                    1.0260013712596523,
                    0.7206257426970581
                ],
                "label": "O",
                "properties": {}
            },
            {
                "species": [
                    {
                        "element": "O",
                        "occu": 1
                    }
                ],
                "abc": [
                    0.07260827,
                    0.72853378,
                    0.70175971
                ],
                "xyz": [
                    3.9937836281536887,
                    1.4329929710276756,
                    5.608731861968509
                ],
                "label": "O",
                "properties": {}
            },
            {
                "species": [
                    {
                        "element": "O",
                        "occu": 1
                    }
                ],
                "abc": [
                    0.92739173,
                    0.27146622,
                    0.29824029
                ],
                "xyz": [
                    7.844200151846312,
                    -1.4329929710276756,
                    2.3849357280314916
                ],
                "label": "O",
                "properties": {}
            },
            {
                "species": [
                    {
                        "element": "O",
                        "occu": 1
                    }
                ],
                "abc": [
                    0.73583989,
                    0.77724238,
                    0.3782106
                ],
                "xyz": [
                    9.895716056681744,
                    0.09045154708656411,
                    3.0244228245674507
                ],
                "label": "O",
                "properties": {}
            },
            {
                "species": [
                    {
                        "element": "O",
                        "occu": 1
                    }
                ],
                "abc": [
                    0.26659429,
                    0.73622707,
                    0.4100035
                ],
                "xyz": [
                    6.162752083787435,
                    1.0260013712596523,
                    3.277705432302942
                ],
                "label": "O",
                "properties": {}
            },
            {
                "species": [
                    {
                        "element": "O",
                        "occu": 1
                    }
                ],
                "abc": [
                    0.26416011,
                    0.22275762,
                    0.6217894
                ],
                "xyz": [
                    1.942267723318257,
                    -0.09045154708656417,
                    4.96924476543255
                ],
                "label": "O",
                "properties": {}
            },
            {
                "species": [
                    {
                        "element": "O",
                        "occu": 1
                    }
                ],
                "abc": [
                    0.73622707,
                    0.26659429,
                    0.9100035
                ],
                "xyz": [
                    4.920723903787436,
                    -1.0260013712596523,
                    7.273041847302942
                ],
                "label": "O",
                "properties": {}
            },
            {
                "species": [
                    {
                        "element": "O",
                        "occu": 1
                    }
                ],
                "abc": [
                    0.77724238,
                    0.73583989,
                    0.8782106
                ],
                "xyz": [
                    8.653687876681744,
                    -0.09045154708656411,
                    7.019759239567451
                ],
                "label": "O",
                "properties": {}
            },
            {
                "species": [
                    {
                        "element": "O",
                        "occu": 1
                    }
                ],
                "abc": [
                    0.73340571,
                    0.26377293,
                    0.5899965
                ],
                "xyz": [
                    5.675231696212565,
                    -1.0260013712596523,
                    4.715962157697058
                ],
                "label": "O",
                "properties": {}
            },
            {
                "species": [
                    {
                        "element": "O",
                        "occu": 1
                    }
                ],
                "abc": [
                    0.72853378,
                    0.07260827,
                    0.20175971
                ],
                "xyz": [
                    5.235811808153689,
                    -1.4329929710276756,
                    1.6133954469685083
                ],
                "label": "O",
                "properties": {}
            },
            {
                "species": [
                    {
                        "element": "O",
                        "occu": 1
                    }
                ],
                "abc": [
                    0.27146622,
                    0.92739173,
                    0.79824029
                ],
                "xyz": [
                    6.602171971846313,
                    1.4329929710276756,
                    6.380272143031492
                ],
                "label": "O",
                "properties": {}
            }
        ]
    },
    "spacegroup": {
        "source": "spglib",
        "symbol": "C2/c",
        "number": 15,
        "point_group": "2/m",
        "crystal_system": "monoclinic",
        "hall": "-C 2yc"
    },
    "dielectric": {
        "epsilon_ionic": [
            [
                9.4649217,
                0.0,
                -1.22801071
            ],
            [
                0.0,
                14.68968344,
                -0.0
            ],
            [
                -1.22801071,
                -0.0,
                12.96090062
            ]
        ],
        "epsilon_ionic_avg": 12.371835253333336,
        "epsilon_ionic_eig": [
            9.07668143074666,
            13.34914088925334,
            14.68968344
        ],
        "epsilon_electronic": [
            [
                5.11632673,
                0.0,
                0.01937896
            ],
            [
                0.0,
                5.21259519,
                0.0
            ],
            [
                0.01936781,
                0.0,
                5.09878889
            ]
        ],
        "epsilon_electronic_avg": 5.142570269999999,
        "epsilon_electronic_eig": [
            5.128823321356278,
            5.086292298643722,
            5.21259519
        ]
    },
    "phonon": {
        "lowest_freq": -0.03244129321422765,
        "frequency": [
            -0.03244129321422765,
            -0.030253125189398686,
            -0.02521927283494874,
            2.361893199294137,
            2.5201533411175823,
            3.146948267012096,
            3.1497121053405275,
            3.270490443854271,
            3.353952011494802,
            3.3724334742049504,
            3.645383980101958,
            3.762736089665469,
            3.847159473572984,
            4.1968119316429755,
            4.30347490639941,
            4.335455350374851,
            4.568266358990287,
            4.8188542486821975,
            4.98648614096897,
            5.210066043226356,
            5.281538792284927,
            5.495165383897519,
            5.506579814141801,
            6.018946172696092,
            7.730749830413,
            8.215923501351382,
            8.291259042074168,
            9.173380636991556,
            9.304725654559906,
            9.508025794857538,
            10.200242958366843,
            10.314283928656815,
            10.392015878474176,
            10.42016697512628,
            10.615815128074422,
            10.757683788529873,
            10.844528590160852,
            11.122918812819059,
            11.155850127636432,
            11.268975029896133,
            11.51764133981377,
            11.518100194644559,
            11.643604774511253,
            12.3771563592052,
            13.203718957288048,
            13.599220008124975,
            25.836282557815473,
            25.938914974468744,
            26.07676387093427,
            26.99535059635092,
            27.162163868549413,
            28.014339260642874,
            28.17975209211022,
            28.49951910778212
        ]
    },
    "born_effective_charge": {
        "avg_abs_trace": 2.7015394444444443,
        "tensors": [
            [
                [
                    4.10833,
                    -0.10439,
                    -0.08003
                ],
                [
                    -0.06709,
                    4.63616,
                    -0.52197
                ],
                [
                    -0.08246,
                    0.12983,
                    4.43906
                ]
            ],
            [
                [
                    4.10837,
                    0.10432,
                    -0.08039
                ],
                [
                    0.06709,
                    4.63616,
                    0.52197
                ],
                [
                    -0.08249,
                    -0.1297,
                    4.43904
                ]
            ],
            [
                [
                    4.10833,
                    0.10439,
                    -0.08003
                ],
                [
                    0.06796,
                    4.63631,
                    0.52243
                ],
                [
                    -0.08246,
                    -0.12983,
                    4.43906
                ]
            ],
            [
                [
                    4.10837,
                    -0.10432,
                    -0.08039
                ],
                [
                    -0.06796,
                    4.63631,
                    -0.52243
                ],
                [
                    -0.08249,
                    0.1297,
                    4.43904
                ]
            ],
            [
                [
                    3.16203,
                    3e-05,
                    -0.0965
                ],
                [
                    -0.0,
                    3.41016,
                    0.0
                ],
                [
                    -0.10153,
                    -0.00011,
                    3.53128
                ]
            ],
            [
                [
                    3.16203,
                    -3e-05,
                    -0.0965
                ],
                [
                    -0.0,
                    3.41023,
                    0.0
                ],
                [
                    -0.10153,
                    0.00011,
                    3.53128
                ]
            ],
            [
                [
                    -2.38189,
                    0.28458,
                    0.17984
                ],
                [
                    0.15984,
                    -3.18324,
                    0.24465
                ],
                [
                    0.16119,
                    0.03547,
                    -2.91048
                ]
            ],
            [
                [
                    -1.17665,
                    0.38434,
                    0.33689
                ],
                [
                    0.39771,
                    -1.664,
                    -1.28357
                ],
                [
                    0.34099,
                    -1.33773,
                    -2.24378
                ]
            ],
            [
                [
                    -2.13104,
                    -1.24075,
                    -0.38826
                ],
                [
                    -1.11836,
                    -1.49395,
                    -0.38108
                ],
                [
                    -0.36877,
                    -0.38196,
                    -1.05075
                ]
            ],
            [
                [
                    -2.13075,
                    -1.24064,
                    -0.38802
                ],
                [
                    -1.11859,
                    -1.49411,
                    -0.38127
                ],
                [
                    -0.369,
                    -0.38215,
                    -1.0507
                ]
            ],
            [
                [
                    -2.38194,
                    -0.28473,
                    0.17975
                ],
                [
                    -0.15984,
                    -3.18324,
                    -0.24465
                ],
                [
                    0.16123,
                    -0.03543,
                    -2.91046
                ]
            ],
            [
                [
                    -1.17646,
                    -0.38431,
                    0.33673
                ],
                [
                    -0.39771,
                    -1.664,
                    1.28357
                ],
                [
                    0.34084,
                    1.33785,
                    -2.24321
                ]
            ],
            [
                [
                    -2.38189,
                    -0.28458,
                    0.17984
                ],
                [
                    -0.15931,
                    -3.18326,
                    -0.24449
                ],
                [
                    0.16119,
                    -0.03547,
                    -2.91048
                ]
            ],
            [
                [
                    -1.17646,
                    0.38431,
                    0.33673
                ],
                [
                    0.39779,
                    -1.66412,
                    -1.28367
                ],
                [
                    0.34084,
                    -1.33785,
                    -2.24321
                ]
            ],
            [
                [
                    -2.38194,
                    0.28473,
                    0.17975
                ],
                [
                    0.15931,
                    -3.18326,
                    0.24449
                ],
                [
                    0.16123,
                    0.03543,
                    -2.91046
                ]
            ],
            [
                [
                    -1.17665,
                    -0.38434,
                    0.33689
                ],
                [
                    -0.39779,
                    -1.66412,
                    1.28367
                ],
                [
                    0.34099,
                    1.33773,
                    -2.24378
                ]
            ],
            [
                [
                    -2.13104,
                    1.24075,
                    -0.38826
                ],
                [
                    1.11859,
                    -1.49411,
                    0.38127
                ],
                [
                    -0.36877,
                    0.38196,
                    -1.05075
                ]
            ],
            [
                [
                    -2.13075,
                    1.24064,
                    -0.38802
                ],
                [
                    1.11836,
                    -1.49395,
                    0.38108
                ],
                [
                    -0.369,
                    0.38215,
                    -1.0507
                ]
            ]
        ]
    },
    "band_gap": 2.0564999999999998,
    "is_direct": false,
    "formula": "La2CrO6"
}