{
    "mp_id": "mp-559957",
    "nelements": 4,
    "nsites": 16,
    "elements": [
        "Ge",
        "O",
        "Sr",
        "Ti"
    ],
    "structure": {
        "@module": "pymatgen.core.structure",
        "@class": "Structure",
        "charge": null,
        "lattice": {
            "matrix": [
                [
                    3.41814264,
                    -4.56811687,
                    5.773e-05
                ],
                [
                    3.41814264,
                    4.56811687,
                    5.773e-05
                ],
                [
                    -2.89292364,
                    0.0,
                    6.66515785
                ]
            ],
            "a": 5.705382620709808,
            "b": 5.705382620709808,
            "c": 7.265902308198719,
            "alpha": 103.79956643560303,
            "beta": 103.79956643560303,
            "gamma": 106.38786401698064,
            "volume": 208.14740783944646
        },
        "sites": [
            {
                "species": [
                    {
                        "element": "Sr",
                        "occu": 1
                    }
                ],
                "abc": [
                    0.1707404,
                    0.8292596,
                    0.25
                ],
                "xyz": [
                    2.6949117300000003,
                    3.008192666738904,
                    1.6663471925
                ],
                "label": "Sr",
                "properties": {}
            },
            {
                "species": [
                    {
                        "element": "Sr",
                        "occu": 1
                    }
                ],
                "abc": [
                    0.8292596,
                    0.1707404,
                    0.75
                ],
                "xyz": [
                    1.2484499100000002,
                    -3.008192666738904,
                    4.9989261175
                ],
                "label": "Sr",
                "properties": {}
            },
            {
                "species": [
                    {
                        "element": "Ti",
                        "occu": 1
                    }
                ],
                "abc": [
                    0.5,
                    0.5,
                    0.0
                ],
                "xyz": [
                    3.41814264,
                    0.0,
                    5.773e-05
                ],
                "label": "Ti",
                "properties": {}
            },
            {
                "species": [
                    {
                        "element": "Ti",
                        "occu": 1
                    }
                ],
                "abc": [
                    0.5,
                    0.5,
                    0.5
                ],
                "xyz": [
                    1.9716808200000002,
                    0.0,
                    3.332636655
                ],
                "label": "Ti",
                "properties": {}
            },
            {
                "species": [
                    {
                        "element": "Ge",
                        "occu": 1
                    }
                ],
                "abc": [
                    0.8137942,
                    0.1862058,
                    0.25
                ],
                "xyz": [
                    2.6949117300000003,
                    -2.8668971574563082,
                    1.6663471925
                ],
                "label": "Ge",
                "properties": {}
            },
            {
                "species": [
                    {
                        "element": "Ge",
                        "occu": 1
                    }
                ],
                "abc": [
                    0.1862058,
                    0.8137942,
                    0.75
                ],
                "xyz": [
                    1.2484499100000002,
                    2.8668971574563082,
                    4.9989261175
                ],
                "label": "Ge",
                "properties": {}
            },
            {
                "species": [
                    {
                        "element": "O",
                        "occu": 1
                    }
                ],
                "abc": [
                    0.87164136,
                    0.74233829,
                    0.57950053
                ],
                "xyz": [
                    3.840361879127747,
                    -0.5906715354097911,
                    3.862555681653855
                ],
                "label": "O",
                "properties": {}
            },
            {
                "species": [
                    {
                        "element": "O",
                        "occu": 1
                    }
                ],
                "abc": [
                    0.39565961,
                    0.80706423,
                    0.60255653
                ],
                "xyz": [
                    2.367931611575169,
                    1.8793443850179394,
                    4.016203819245543
                ],
                "label": "O",
                "properties": {}
            },
            {
                "species": [
                    {
                        "element": "O",
                        "occu": 1
                    }
                ],
                "abc": [
                    0.25766171,
                    0.12835864,
                    0.92049947
                ],
                "xyz": [
                    -1.3434620591277469,
                    -0.5906715354097908,
                    6.135296553346145
                ],
                "label": "O",
                "properties": {}
            },
            {
                "species": [
                    {
                        "element": "O",
                        "occu": 1
                    }
                ],
                "abc": [
                    0.12835864,
                    0.25766171,
                    0.42049947
                ],
                "xyz": [
                    0.10299976087225327,
                    0.5906715354097908,
                    2.802717628346145
                ],
                "label": "O",
                "properties": {}
            },
            {
                "species": [
                    {
                        "element": "O",
                        "occu": 1
                    }
                ],
                "abc": [
                    0.74233829,
                    0.87164136,
                    0.07950053
                ],
                "xyz": [
                    5.286823699127747,
                    0.5906715354097911,
                    0.5299767566538549
                ],
                "label": "O",
                "properties": {}
            },
            {
                "species": [
                    {
                        "element": "O",
                        "occu": 1
                    }
                ],
                "abc": [
                    0.56136076,
                    0.43863924,
                    0.75
                ],
                "xyz": [
                    1.2484499100000002,
                    -0.5606062458240428,
                    4.9989261175
                ],
                "label": "O",
                "properties": {}
            },
            {
                "species": [
                    {
                        "element": "O",
                        "occu": 1
                    }
                ],
                "abc": [
                    0.19293577,
                    0.60434039,
                    0.89744347
                ],
                "xyz": [
                    0.1289682084248316,
                    1.879344385017939,
                    5.9816484157544565
                ],
                "label": "O",
                "properties": {}
            },
            {
                "species": [
                    {
                        "element": "O",
                        "occu": 1
                    }
                ],
                "abc": [
                    0.80706423,
                    0.39565961,
                    0.10255653
                ],
                "xyz": [
                    3.8143934315751693,
                    -1.8793443850179394,
                    0.6836248942455437
                ],
                "label": "O",
                "properties": {}
            },
            {
                "species": [
                    {
                        "element": "O",
                        "occu": 1
                    }
                ],
                "abc": [
                    0.43863924,
                    0.56136076,
                    0.25
                ],
                "xyz": [
                    2.6949117300000003,
                    0.5606062458240428,
                    1.6663471925
                ],
                "label": "O",
                "properties": {}
            },
            {
                "species": [
                    {
                        "element": "O",
                        "occu": 1
                    }
                ],
                "abc": [
                    0.60434039,
                    0.19293577,
                    0.39744347
                ],
                "xyz": [
                    1.5754300284248317,
                    -1.879344385017939,
                    2.6490694907544565
                ],
                "label": "O",
                "properties": {}
            }
        ]
    },
    "spacegroup": {
        "source": "spglib",
        "symbol": "C2/c",
        "number": 15,
        "point_group": "2/m",
        "crystal_system": "monoclinic",
        "hall": "-C 2yc"
    },
    "dielectric": {
        "epsilon_ionic": [
            [
                15.03247158,
                0.0,
                -5.62284524
            ],
            [
                0.0,
                9.33392602,
                -0.0
            ],
            [
                -5.62284524,
                -0.0,
                20.88740164
            ]
        ],
        "epsilon_ionic_avg": 15.084599746666667,
        "epsilon_ionic_eig": [
            11.620659041154827,
            24.299214178845173,
            9.33392602
        ],
        "epsilon_electronic": [
            [
                4.40037894,
                0.0,
                -0.25633582
            ],
            [
                0.0,
                4.41859503,
                0.0
            ],
            [
                -0.25633693,
                0.0,
                5.24336426
            ]
        ],
        "epsilon_electronic_avg": 4.687446076666666,
        "epsilon_electronic_eig": [
            4.328551825835506,
            5.3151913741644945,
            4.41859503
        ]
    },
    "phonon": {
        "lowest_freq": -0.05547705497624912,
        "frequency": [
            -0.05547705497624912,
            -0.041496721352231,
            -0.027020980192886363,
            1.9469931661942768,
            2.6487172927077904,
            3.07944800256282,
            3.9124506491735684,
            4.531879832831532,
            4.593262173534652,
            4.882958972098668,
            5.408366980250646,
            6.055037324223503,
            6.057419893424772,
            6.060745972743968,
            6.079829979688672,
            6.710205186866046,
            6.852805532209229,
            7.53355559773882,
            7.689941577257708,
            8.435953405743867,
            8.575410074601852,
            8.804767925729603,
            8.887022171981245,
            9.514475259899974,
            9.516585678006903,
            9.664237490467862,
            10.1135289045166,
            11.260729438403471,
            11.32483085902149,
            11.397870887876872,
            12.108436219199458,
            12.34997806976319,
            12.444586936634318,
            13.158813532764363,
            13.385043908048745,
            13.71599597285745,
            14.022385702481024,
            15.527884055091441,
            17.254825275735286,
            19.72399831797411,
            19.851728897346117,
            20.556788423732417,
            20.66927988043855,
            21.207386583578575,
            21.564590322217445,
            23.657675811967476,
            23.968721927674885,
            25.37403986901112
        ]
    },
    "born_effective_charge": {
        "avg_abs_trace": 3.112328333333333,
        "tensors": [
            [
                [
                    2.57087,
                    5e-05,
                    0.14908
                ],
                [
                    -0.0,
                    2.68871,
                    0.0
                ],
                [
                    0.14847,
                    8e-05,
                    2.2882
                ]
            ],
            [
                [
                    2.57087,
                    -5e-05,
                    0.14908
                ],
                [
                    -0.0,
                    2.68889,
                    0.0
                ],
                [
                    0.14847,
                    -8e-05,
                    2.2882
                ]
            ],
            [
                [
                    5.61336,
                    0.19405,
                    -1.47822
                ],
                [
                    0.65443,
                    5.00281,
                    0.05743
                ],
                [
                    -0.55416,
                    1.03693,
                    8.01327
                ]
            ],
            [
                [
                    5.61336,
                    -0.19405,
                    -1.47822
                ],
                [
                    -0.65443,
                    5.00281,
                    -0.05743
                ],
                [
                    -0.55416,
                    -1.03693,
                    8.01327
                ]
            ],
            [
                [
                    3.45273,
                    2e-05,
                    0.83568
                ],
                [
                    -0.0,
                    4.1397,
                    0.0
                ],
                [
                    -0.20815,
                    1e-05,
                    3.5782
                ]
            ],
            [
                [
                    3.45273,
                    -2e-05,
                    0.83568
                ],
                [
                    -0.0,
                    4.13968,
                    0.0
                ],
                [
                    -0.20815,
                    -1e-05,
                    3.5782
                ]
            ],
            [
                [
                    -3.00912,
                    0.79037,
                    -0.90731
                ],
                [
                    0.86374,
                    -2.12889,
                    0.3753
                ],
                [
                    -0.844,
                    0.45367,
                    -1.9006
                ]
            ],
            [
                [
                    -1.83063,
                    0.27121,
                    0.15487
                ],
                [
                    0.17193,
                    -2.90168,
                    -0.75124
                ],
                [
                    0.15788,
                    -0.78992,
                    -2.04195
                ]
            ],
            [
                [
                    -3.00883,
                    -0.7903,
                    -0.90732
                ],
                [
                    -0.86374,
                    -2.12889,
                    -0.3753
                ],
                [
                    -0.84455,
                    -0.4538,
                    -1.90067
                ]
            ],
            [
                [
                    -3.00883,
                    0.7903,
                    -0.90732
                ],
                [
                    0.86369,
                    -2.12914,
                    0.3752
                ],
                [
                    -0.84455,
                    0.4538,
                    -1.90067
                ]
            ],
            [
                [
                    -3.00912,
                    -0.79037,
                    -0.90731
                ],
                [
                    -0.86369,
                    -2.12914,
                    -0.3752
                ],
                [
                    -0.844,
                    -0.45367,
                    -1.9006
                ]
            ],
            [
                [
                    -1.95778,
                    -7e-05,
                    1.99835
                ],
                [
                    0.0,
                    -1.77006,
                    0.0
                ],
                [
                    1.98678,
                    0.00016,
                    -5.99437
                ]
            ],
            [
                [
                    -1.83061,
                    -0.27141,
                    0.15488
                ],
                [
                    -0.17193,
                    -2.90168,
                    0.75124
                ],
                [
                    0.15771,
                    0.79044,
                    -2.04208
                ]
            ],
            [
                [
                    -1.83063,
                    -0.27121,
                    0.15487
                ],
                [
                    -0.17176,
                    -2.90151,
                    0.75122
                ],
                [
                    0.15788,
                    0.78992,
                    -2.04195
                ]
            ],
            [
                [
                    -1.95778,
                    7e-05,
                    1.99835
                ],
                [
                    -0.0,
                    -1.77012,
                    0.0
                ],
                [
                    1.98678,
                    -0.00016,
                    -5.99437
                ]
            ],
            [
                [
                    -1.83061,
                    0.27141,
                    0.15488
                ],
                [
                    0.17176,
                    -2.90151,
                    -0.75122
                ],
                [
                    0.15771,
                    -0.79044,
                    -2.04208
                ]
            ]
        ]
    },
    "band_gap": 2.8998,
    "is_direct": false,
    "formula": "SrTiGeO5"
}