{
    "mp_id": "mp-562263",
    "nelements": 3,
    "nsites": 20,
    "elements": [
        "Cs",
        "O",
        "Pb"
    ],
    "structure": {
        "@module": "pymatgen.core.structure",
        "@class": "Structure",
        "charge": null,
        "lattice": {
            "matrix": [
                [
                    7.81494445,
                    -0.00131722,
                    -0.00033629
                ],
                [
                    3.88656084,
                    7.04916603,
                    0.00245223
                ],
                [
                    3.70284391,
                    -0.75745897,
                    10.17274225
                ]
            ],
            "a": 7.814944568245209,
            "b": 8.04960265447677,
            "c": 10.852164853060085,
            "alpha": 84.03582848820007,
            "beta": 70.05126162268806,
            "gamma": 61.13949485761421,
            "volume": 560.4809305207211
        },
        "sites": [
            {
                "species": [
                    {
                        "element": "Cs",
                        "occu": 1
                    }
                ],
                "abc": [
                    0.24650315,
                    0.2551072,
                    0.49686745
                ],
                "xyz": [
                    4.757720688831794,
                    1.4216116024656464,
                    5.055047186249505
                ],
                "label": "Cs",
                "properties": {}
            },
            {
                "species": [
                    {
                        "element": "Cs",
                        "occu": 1
                    }
                ],
                "abc": [
                    0.06421133,
                    0.94153718,
                    0.18272469
                ],
                "xyz": [
                    4.837750515775787,
                    6.498560869308924,
                    1.8610984461718982
                ],
                "label": "Cs",
                "properties": {}
            },
            {
                "species": [
                    {
                        "element": "Cs",
                        "occu": 1
                    }
                ],
                "abc": [
                    0.93549984,
                    0.55155497,
                    0.82600868
                ],
                "xyz": [
                    12.513112440438402,
                    3.2611026151385647,
                    8.403811338305621
                ],
                "label": "Cs",
                "properties": {}
            },
            {
                "species": [
                    {
                        "element": "Cs",
                        "occu": 1
                    }
                ],
                "abc": [
                    0.93578867,
                    0.05846282,
                    0.81727531
                ],
                "xyz": [
                    10.566598684224212,
                    -0.20817102930892345,
                    8.313759743828102
                ],
                "label": "Cs",
                "properties": {}
            },
            {
                "species": [
                    {
                        "element": "Cs",
                        "occu": 1
                    }
                ],
                "abc": [
                    0.60114833,
                    0.4325858,
                    0.14099703
                ],
                "xyz": [
                    6.901301829243928,
                    2.941777816700273,
                    1.4351850839099558
                ],
                "label": "Cs",
                "properties": {}
            },
            {
                "species": [
                    {
                        "element": "Cs",
                        "occu": 1
                    }
                ],
                "abc": [
                    0.06450016,
                    0.44844503,
                    0.17399132
                ],
                "xyz": [
                    2.891236759561598,
                    3.0292872248614358,
                    1.7710468516943805
                ],
                "label": "Cs",
                "properties": {}
            },
            {
                "species": [
                    {
                        "element": "Cs",
                        "occu": 1
                    }
                ],
                "abc": [
                    0.39885167,
                    0.5674142,
                    0.85900297
                ],
                "xyz": [
                    8.503047370756072,
                    3.348612023299728,
                    8.739673106090045
                ],
                "label": "Cs",
                "properties": {}
            },
            {
                "species": [
                    {
                        "element": "Cs",
                        "occu": 1
                    }
                ],
                "abc": [
                    0.75349685,
                    0.7448928,
                    0.50313255
                ],
                "xyz": [
                    10.646628511168204,
                    4.868778237534353,
                    5.119811003750495
                ],
                "label": "Cs",
                "properties": {}
            },
            {
                "species": [
                    {
                        "element": "Pb",
                        "occu": 1
                    }
                ],
                "abc": [
                    0.59429752,
                    0.94246766,
                    0.12321788
                ],
                "xyz": [
                    8.76361658245631,
                    6.5494957041959125,
                    1.255575024988311
                ],
                "label": "Pb",
                "properties": {}
            },
            {
                "species": [
                    {
                        "element": "Pb",
                        "occu": 1
                    }
                ],
                "abc": [
                    0.30850223,
                    0.69757808,
                    0.47057985
                ],
                "xyz": [
                    6.864591170462724,
                    4.560492411017468,
                    4.788694397773855
                ],
                "label": "Pb",
                "properties": {}
            },
            {
                "species": [
                    {
                        "element": "Pb",
                        "occu": 1
                    }
                ],
                "abc": [
                    0.69149777,
                    0.30242192,
                    0.52942015
                ],
                "xyz": [
                    8.539758029537277,
                    1.7298974289825328,
                    5.386163792226146
                ],
                "label": "Pb",
                "properties": {}
            },
            {
                "species": [
                    {
                        "element": "Pb",
                        "occu": 1
                    }
                ],
                "abc": [
                    0.40570248,
                    0.05753234,
                    0.87678212
                ],
                "xyz": [
                    6.640732617543691,
                    -0.25910586419591175,
                    8.91928316501169
                ],
                "label": "Pb",
                "properties": {}
            },
            {
                "species": [
                    {
                        "element": "O",
                        "occu": 1
                    }
                ],
                "abc": [
                    0.49158269,
                    0.81368315,
                    0.00873248
                ],
                "xyz": [
                    7.036455492276613,
                    5.728525602306128,
                    0.09066329213138441
                ],
                "label": "O",
                "properties": {}
            },
            {
                "species": [
                    {
                        "element": "O",
                        "occu": 1
                    }
                ],
                "abc": [
                    0.79867156,
                    0.41497168,
                    0.64111695
                ],
                "xyz": [
                    10.228342550297127,
                    2.438532459319226,
                    6.522666505200072
                ],
                "label": "O",
                "properties": {}
            },
            {
                "species": [
                    {
                        "element": "O",
                        "occu": 1
                    }
                ],
                "abc": [
                    0.92268523,
                    0.78957713,
                    0.02371819
                ],
                "xyz": [
                    10.367298126300785,
                    5.546679347654569,
                    0.2429049684160307
                ],
                "label": "O",
                "properties": {}
            },
            {
                "species": [
                    {
                        "element": "O",
                        "occu": 1
                    }
                ],
                "abc": [
                    0.50841731,
                    0.18631685,
                    0.99126752
                ],
                "xyz": [
                    8.367893707723386,
                    0.5618642376938731,
                    10.084194897868615
                ],
                "label": "O",
                "properties": {}
            },
            {
                "species": [
                    {
                        "element": "O",
                        "occu": 1
                    }
                ],
                "abc": [
                    0.07731477,
                    0.21042287,
                    0.97628181
                ],
                "xyz": [
                    5.037051073699214,
                    0.7437104923454312,
                    9.931953221583969
                ],
                "label": "O",
                "properties": {}
            },
            {
                "species": [
                    {
                        "element": "O",
                        "occu": 1
                    }
                ],
                "abc": [
                    0.20132844,
                    0.58502832,
                    0.35888305
                ],
                "xyz": [
                    5.176006649702872,
                    3.851857380680775,
                    3.6521916847999285
                ],
                "label": "O",
                "properties": {}
            },
            {
                "species": [
                    {
                        "element": "O",
                        "occu": 1
                    }
                ],
                "abc": [
                    0.65318621,
                    0.51405539,
                    0.3759077
                ],
                "xyz": [
                    8.494449032688069,
                    3.3380667435297964,
                    3.825053063948784
                ],
                "label": "O",
                "properties": {}
            },
            {
                "species": [
                    {
                        "element": "O",
                        "occu": 1
                    }
                ],
                "abc": [
                    0.34681379,
                    0.48594461,
                    0.6240923
                ],
                "xyz": [
                    6.909900167311931,
                    2.952323096470204,
                    6.3498051260512165
                ],
                "label": "O",
                "properties": {}
            }
        ]
    },
    "spacegroup": {
        "source": "spglib",
        "symbol": "P-1",
        "number": 2,
        "point_group": "-1",
        "crystal_system": "triclinic",
        "hall": "-P 1"
    },
    "dielectric": {
        "epsilon_ionic": [
            [
                6.44509958,
                -0.15829088,
                -0.04926099
            ],
            [
                -0.15829088,
                5.74567417,
                -0.78608348
            ],
            [
                -0.04926099,
                -0.78608348,
                5.02999682
            ]
        ],
        "epsilon_ionic_avg": 5.740256856666668,
        "epsilon_ionic_eig": [
            4.515737349993319,
            6.499059554190124,
            6.205973665816559
        ],
        "epsilon_electronic": [
            [
                4.17088184,
                -0.09408851,
                0.09412955
            ],
            [
                -0.09408881,
                3.98943642,
                -0.08600865
            ],
            [
                0.09413214,
                -0.08599967,
                3.98268353
            ]
        ],
        "epsilon_electronic_avg": 4.047667263333332,
        "epsilon_electronic_eig": [
            4.263449592827801,
            3.9796041220508376,
            3.8999480751213564
        ]
    },
    "phonon": {
        "lowest_freq": -0.12605394691955582,
        "frequency": [
            -0.12605394691955582,
            -0.045048829132615716,
            -0.03016226552262964,
            0.7344609768159969,
            0.8865800793177073,
            0.9457992939043882,
            1.0503325599216633,
            1.1051339052705402,
            1.1765566314116493,
            1.2504376881843875,
            1.2857672721915412,
            1.292613113751592,
            1.3419083130311862,
            1.3601538977193204,
            1.367260095719629,
            1.5235951462765869,
            1.5564896084689914,
            1.6005998884422625,
            1.6329641587116033,
            1.7505814807762528,
            1.8174889900880604,
            1.8996519624295825,
            1.926476721414842,
            1.9486277134925754,
            2.1864646810329615,
            2.236536682653916,
            2.2458944317781833,
            2.4281038128578287,
            2.5354105715295763,
            2.5495681799819145,
            2.6819048823962346,
            2.6984956632134796,
            2.8562636933091037,
            2.9418512762827373,
            3.7622778556955025,
            3.8356137953401266,
            4.66141003019988,
            4.860100266199996,
            4.962494545298959,
            5.053918361998865,
            5.2889554461129595,
            5.892601754076059,
            5.912391426940958,
            6.13002673278821,
            7.681061097858455,
            7.985250879016986,
            8.215221840745281,
            8.741891592732486,
            9.874204105394588,
            10.11957340752354,
            10.412586457465366,
            10.87108112261509,
            11.489802718870695,
            11.59210639925132,
            11.881211811460737,
            12.031726277082745,
            14.337940585686953,
            14.556315874331078,
            14.731861240373888,
            14.907144504045629
        ]
    },
    "born_effective_charge": {
        "avg_abs_trace": 1.7278608333333334,
        "tensors": [
            [
                [
                    1.55821,
                    0.24664,
                    -0.1705
                ],
                [
                    0.16647,
                    1.32264,
                    -0.09337
                ],
                [
                    -0.07476,
                    -0.09663,
                    1.03367
                ]
            ],
            [
                [
                    1.5119,
                    0.07461,
                    -0.0397
                ],
                [
                    0.03783,
                    1.15206,
                    -0.27687
                ],
                [
                    -0.03951,
                    -0.25766,
                    1.34488
                ]
            ],
            [
                [
                    1.27422,
                    -0.12331,
                    0.06613
                ],
                [
                    -0.07711,
                    1.37681,
                    0.22166
                ],
                [
                    0.0609,
                    0.21197,
                    1.43463
                ]
            ],
            [
                [
                    1.51184,
                    0.07442,
                    -0.03978
                ],
                [
                    0.03786,
                    1.15215,
                    -0.27681
                ],
                [
                    -0.03951,
                    -0.25766,
                    1.34481
                ]
            ],
            [
                [
                    1.29093,
                    0.05422,
                    -0.01378
                ],
                [
                    0.02662,
                    1.24936,
                    0.20042
                ],
                [
                    -0.00403,
                    0.22062,
                    1.61518
                ]
            ],
            [
                [
                    1.27428,
                    -0.12327,
                    0.06616
                ],
                [
                    -0.07712,
                    1.37679,
                    0.22163
                ],
                [
                    0.06098,
                    0.21193,
                    1.43476
                ]
            ],
            [
                [
                    1.29084,
                    0.05425,
                    -0.01389
                ],
                [
                    0.02659,
                    1.24945,
                    0.20042
                ],
                [
                    -0.00409,
                    0.22056,
                    1.61513
                ]
            ],
            [
                [
                    1.55812,
                    0.24663,
                    -0.17067
                ],
                [
                    0.16643,
                    1.32275,
                    -0.09328
                ],
                [
                    -0.07475,
                    -0.09664,
                    1.03358
                ]
            ],
            [
                [
                    2.02228,
                    -0.57899,
                    0.20358
                ],
                [
                    -0.64093,
                    1.39008,
                    -0.26328
                ],
                [
                    0.24378,
                    -0.18196,
                    1.40872
                ]
            ],
            [
                [
                    1.94514,
                    -0.37273,
                    0.52149
                ],
                [
                    -0.26189,
                    1.64226,
                    -0.25723
                ],
                [
                    0.4817,
                    -0.38552,
                    1.34499
                ]
            ],
            [
                [
                    1.94513,
                    -0.3727,
                    0.52144
                ],
                [
                    -0.26178,
                    1.64236,
                    -0.25707
                ],
                [
                    0.48189,
                    -0.38531,
                    1.34501
                ]
            ],
            [
                [
                    2.02238,
                    -0.57921,
                    0.20334
                ],
                [
                    -0.64093,
                    1.38999,
                    -0.26317
                ],
                [
                    0.24378,
                    -0.18195,
                    1.40849
                ]
            ],
            [
                [
                    -2.1654,
                    -0.08898,
                    -0.69829
                ],
                [
                    -0.00434,
                    -2.15829,
                    0.54241
                ],
                [
                    -0.37207,
                    0.23582,
                    -2.03626
                ]
            ],
            [
                [
                    -2.78794,
                    -0.54058,
                    -0.50289
                ],
                [
                    -0.13211,
                    -1.75794,
                    0.04026
                ],
                [
                    -0.49586,
                    -0.19105,
                    -2.07857
                ]
            ],
            [
                [
                    -2.62047,
                    0.604,
                    0.49029
                ],
                [
                    0.55212,
                    -2.02535,
                    -0.32414
                ],
                [
                    0.15646,
                    -0.14477,
                    -1.8518
                ]
            ],
            [
                [
                    -2.16539,
                    -0.08879,
                    -0.69844
                ],
                [
                    -0.00438,
                    -2.15844,
                    0.54235
                ],
                [
                    -0.37217,
                    0.23543,
                    -2.03618
                ]
            ],
            [
                [
                    -2.62063,
                    0.60406,
                    0.49043
                ],
                [
                    0.5521,
                    -2.02526,
                    -0.3241
                ],
                [
                    0.15653,
                    -0.1448,
                    -1.85174
                ]
            ],
            [
                [
                    -2.78782,
                    -0.54063,
                    -0.5026
                ],
                [
                    -0.13207,
                    -1.75785,
                    0.04022
                ],
                [
                    -0.4959,
                    -0.19098,
                    -2.07881
                ]
            ],
            [
                [
                    -2.02893,
                    0.72519,
                    0.14394
                ],
                [
                    0.33335,
                    -2.19177,
                    0.20993
                ],
                [
                    0.04333,
                    0.58934,
                    -2.21533
                ]
            ],
            [
                [
                    -2.02869,
                    0.72517,
                    0.14372
                ],
                [
                    0.33328,
                    -2.19181,
                    0.21001
                ],
                [
                    0.04331,
                    0.58927,
                    -2.21516
                ]
            ]
        ]
    },
    "band_gap": 1.8015,
    "is_direct": true,
    "formula": "Cs2PbO2"
}