{
    "mp_id": "mp-554845",
    "nelements": 3,
    "nsites": 28,
    "elements": [
        "Na",
        "O",
        "Zn"
    ],
    "structure": {
        "@module": "pymatgen.core.structure",
        "@class": "Structure",
        "charge": null,
        "lattice": {
            "matrix": [
                [
                    6.05337668,
                    0.0,
                    0.0
                ],
                [
                    0.0,
                    6.05337668,
                    0.0
                ],
                [
                    0.0,
                    0.0,
                    9.26973133
                ]
            ],
            "a": 6.05337668,
            "b": 6.05337668,
            "c": 9.26973133,
            "alpha": 90.0,
            "beta": 90.0,
            "gamma": 90.0,
            "volume": 339.67418778779074
        },
        "sites": [
            {
                "species": [
                    {
                        "element": "Na",
                        "occu": 1
                    }
                ],
                "abc": [
                    0.74605983,
                    0.53715733,
                    0.64585897
                ],
                "xyz": [
                    4.516181176806764,
                    3.2516156549130644,
                    5.986939128970531
                ],
                "label": "Na",
                "properties": {}
            },
            {
                "species": [
                    {
                        "element": "Na",
                        "occu": 1
                    }
                ],
                "abc": [
                    0.96284267,
                    0.24605983,
                    0.39585897
                ],
                "xyz": [
                    5.828449365086936,
                    1.4894928368067646,
                    3.66950629647053
                ],
                "label": "Na",
                "properties": {}
            },
            {
                "species": [
                    {
                        "element": "Na",
                        "occu": 1
                    }
                ],
                "abc": [
                    0.46284267,
                    0.25394017,
                    0.85414103
                ],
                "xyz": [
                    2.801761025086936,
                    1.5371955031932358,
                    7.9176578660294705
                ],
                "label": "Na",
                "properties": {}
            },
            {
                "species": [
                    {
                        "element": "Na",
                        "occu": 1
                    }
                ],
                "abc": [
                    0.25394017,
                    0.46284267,
                    0.14585897
                ],
                "xyz": [
                    1.5371955031932358,
                    2.801761025086936,
                    1.3520734639705303
                ],
                "label": "Na",
                "properties": {}
            },
            {
                "species": [
                    {
                        "element": "Na",
                        "occu": 1
                    }
                ],
                "abc": [
                    0.03715733,
                    0.75394017,
                    0.89585897
                ],
                "xyz": [
                    0.22492731491306442,
                    4.563883843193236,
                    8.304371961470531
                ],
                "label": "Na",
                "properties": {}
            },
            {
                "species": [
                    {
                        "element": "Na",
                        "occu": 1
                    }
                ],
                "abc": [
                    0.75394017,
                    0.03715733,
                    0.10414103
                ],
                "xyz": [
                    4.563883843193236,
                    0.22492731491306442,
                    0.9653593685294699
                ],
                "label": "Na",
                "properties": {}
            },
            {
                "species": [
                    {
                        "element": "Na",
                        "occu": 1
                    }
                ],
                "abc": [
                    0.53715733,
                    0.74605983,
                    0.35414103
                ],
                "xyz": [
                    3.2516156549130644,
                    4.516181176806764,
                    3.2827922010294706
                ],
                "label": "Na",
                "properties": {}
            },
            {
                "species": [
                    {
                        "element": "Na",
                        "occu": 1
                    }
                ],
                "abc": [
                    0.24605983,
                    0.96284267,
                    0.60414103
                ],
                "xyz": [
                    1.4894928368067646,
                    5.828449365086936,
                    5.60022503352947
                ],
                "label": "Na",
                "properties": {}
            },
            {
                "species": [
                    {
                        "element": "Zn",
                        "occu": 1
                    }
                ],
                "abc": [
                    0.2580416,
                    0.45293486,
                    0.61401528
                ],
                "xyz": [
                    1.562023003909888,
                    2.741785319083065,
                    5.691756678114723
                ],
                "label": "Zn",
                "properties": {}
            },
            {
                "species": [
                    {
                        "element": "Zn",
                        "occu": 1
                    }
                ],
                "abc": [
                    0.04706514,
                    0.7580416,
                    0.36401528
                ],
                "xyz": [
                    0.2849030209169352,
                    4.588711343909888,
                    3.3743238456147227
                ],
                "label": "Zn",
                "properties": {}
            },
            {
                "species": [
                    {
                        "element": "Zn",
                        "occu": 1
                    }
                ],
                "abc": [
                    0.45293486,
                    0.2580416,
                    0.38598472
                ],
                "xyz": [
                    2.741785319083065,
                    1.562023003909888,
                    3.577974651885278
                ],
                "label": "Zn",
                "properties": {}
            },
            {
                "species": [
                    {
                        "element": "Zn",
                        "occu": 1
                    }
                ],
                "abc": [
                    0.7580416,
                    0.04706514,
                    0.63598472
                ],
                "xyz": [
                    4.588711343909888,
                    0.2849030209169352,
                    5.895407484385277
                ],
                "label": "Zn",
                "properties": {}
            },
            {
                "species": [
                    {
                        "element": "Zn",
                        "occu": 1
                    }
                ],
                "abc": [
                    0.2419584,
                    0.95293486,
                    0.13598472
                ],
                "xyz": [
                    1.464665336090112,
                    5.768473659083066,
                    1.2605418193852778
                ],
                "label": "Zn",
                "properties": {}
            },
            {
                "species": [
                    {
                        "element": "Zn",
                        "occu": 1
                    }
                ],
                "abc": [
                    0.54706514,
                    0.7419584,
                    0.88598472
                ],
                "xyz": [
                    3.311591360916935,
                    4.491353676090112,
                    8.212840316885277
                ],
                "label": "Zn",
                "properties": {}
            },
            {
                "species": [
                    {
                        "element": "Zn",
                        "occu": 1
                    }
                ],
                "abc": [
                    0.95293486,
                    0.2419584,
                    0.86401528
                ],
                "xyz": [
                    5.768473659083066,
                    1.464665336090112,
                    8.009189510614723
                ],
                "label": "Zn",
                "properties": {}
            },
            {
                "species": [
                    {
                        "element": "Zn",
                        "occu": 1
                    }
                ],
                "abc": [
                    0.7419584,
                    0.54706514,
                    0.11401528
                ],
                "xyz": [
                    4.491353676090112,
                    3.311591360916935,
                    1.0568910131147224
                ],
                "label": "Zn",
                "properties": {}
            },
            {
                "species": [
                    {
                        "element": "O",
                        "occu": 1
                    }
                ],
                "abc": [
                    0.32900921,
                    0.67099079,
                    0.75
                ],
                "xyz": [
                    1.991616679319223,
                    4.061760000680777,
                    6.952298497500001
                ],
                "label": "O",
                "properties": {}
            },
            {
                "species": [
                    {
                        "element": "O",
                        "occu": 1
                    }
                ],
                "abc": [
                    0.24134562,
                    0.51533361,
                    0.40893856
                ],
                "xyz": [
                    1.4609559479281418,
                    3.119508457194215,
                    3.7907505816770852
                ],
                "label": "O",
                "properties": {}
            },
            {
                "species": [
                    {
                        "element": "O",
                        "occu": 1
                    }
                ],
                "abc": [
                    0.48466639,
                    0.75865438,
                    0.09106144
                ],
                "xyz": [
                    2.9338682228057853,
                    4.592420732071859,
                    0.8441150833229152
                ],
                "label": "O",
                "properties": {}
            },
            {
                "species": [
                    {
                        "element": "O",
                        "occu": 1
                    }
                ],
                "abc": [
                    0.75865438,
                    0.48466639,
                    0.90893856
                ],
                "xyz": [
                    4.592420732071859,
                    2.9338682228057853,
                    8.425616246677086
                ],
                "label": "O",
                "properties": {}
            },
            {
                "species": [
                    {
                        "element": "O",
                        "occu": 1
                    }
                ],
                "abc": [
                    0.67099079,
                    0.32900921,
                    0.25
                ],
                "xyz": [
                    4.061760000680777,
                    1.991616679319223,
                    2.3174328325
                ],
                "label": "O",
                "properties": {}
            },
            {
                "species": [
                    {
                        "element": "O",
                        "occu": 1
                    }
                ],
                "abc": [
                    0.98466639,
                    0.74134562,
                    0.15893856
                ],
                "xyz": [
                    5.9605565628057855,
                    4.487644287928142,
                    1.473317749177085
                ],
                "label": "O",
                "properties": {}
            },
            {
                "species": [
                    {
                        "element": "O",
                        "occu": 1
                    }
                ],
                "abc": [
                    0.82900921,
                    0.82900921,
                    0.5
                ],
                "xyz": [
                    5.018305019319223,
                    5.018305019319223,
                    4.634865665
                ],
                "label": "O",
                "properties": {}
            },
            {
                "species": [
                    {
                        "element": "O",
                        "occu": 1
                    }
                ],
                "abc": [
                    0.51533361,
                    0.24134562,
                    0.59106144
                ],
                "xyz": [
                    3.119508457194215,
                    1.4609559479281418,
                    5.4789807483229165
                ],
                "label": "O",
                "properties": {}
            },
            {
                "species": [
                    {
                        "element": "O",
                        "occu": 1
                    }
                ],
                "abc": [
                    0.01533361,
                    0.25865438,
                    0.65893856
                ],
                "xyz": [
                    0.0928201171942148,
                    1.5657323920718587,
                    6.108183414177085
                ],
                "label": "O",
                "properties": {}
            },
            {
                "species": [
                    {
                        "element": "O",
                        "occu": 1
                    }
                ],
                "abc": [
                    0.25865438,
                    0.01533361,
                    0.34106144
                ],
                "xyz": [
                    1.5657323920718587,
                    0.0928201171942148,
                    3.1615479158229154
                ],
                "label": "O",
                "properties": {}
            },
            {
                "species": [
                    {
                        "element": "O",
                        "occu": 1
                    }
                ],
                "abc": [
                    0.74134562,
                    0.98466639,
                    0.84106144
                ],
                "xyz": [
                    4.487644287928142,
                    5.9605565628057855,
                    7.796413580822916
                ],
                "label": "O",
                "properties": {}
            },
            {
                "species": [
                    {
                        "element": "O",
                        "occu": 1
                    }
                ],
                "abc": [
                    0.17099079,
                    0.17099079,
                    0.0
                ],
                "xyz": [
                    1.0350716606807773,
                    1.0350716606807773,
                    0.0
                ],
                "label": "O",
                "properties": {}
            }
        ]
    },
    "spacegroup": {
        "source": "spglib",
        "symbol": "P4_32_12",
        "number": 96,
        "point_group": "422",
        "crystal_system": "tetragonal",
        "hall": "P 4nw 2abw"
    },
    "dielectric": {
        "epsilon_ionic": [
            [
                6.95034698,
                0.0,
                0.0
            ],
            [
                0.0,
                6.95034734,
                0.0
            ],
            [
                0.0,
                0.0,
                5.58820156
            ]
        ],
        "epsilon_ionic_avg": 6.496298626666667,
        "epsilon_ionic_eig": [
            6.95034698,
            6.95034734,
            5.58820156
        ],
        "epsilon_electronic": [
            [
                3.57114735,
                0.0,
                0.0
            ],
            [
                0.0,
                3.57114735,
                0.0
            ],
            [
                0.0,
                -0.0,
                3.60306692
            ]
        ],
        "epsilon_electronic_avg": 3.5817872066666667,
        "epsilon_electronic_eig": [
            3.57114735,
            3.57114735,
            3.60306692
        ]
    },
    "phonon": {
        "lowest_freq": -0.2262134558849353,
        "frequency": [
            -0.2262134558849353,
            -0.2262134558849353,
            -0.05157146804092733,
            2.2501693458288257,
            2.5286392728866645,
            2.6556827746923135,
            2.869035445141151,
            3.0202005467974766,
            3.0202005467974766,
            3.31609699203054,
            3.5833463332635898,
            3.5833463332635898,
            3.6781590748004787,
            3.7907166387744877,
            3.7907166387744877,
            3.814329305606196,
            3.8655144332918563,
            3.9154727013758657,
            3.9295039089649526,
            3.9295039089649526,
            4.302199712001795,
            4.564423861471663,
            4.583219757287396,
            4.583219757287396,
            4.63094883443101,
            4.910427347721875,
            5.341826113306852,
            5.417231159796197,
            5.417231159796197,
            5.450645005386027,
            5.69125398329132,
            5.69125398329132,
            5.8140521481718554,
            6.093787043447374,
            6.093787043447374,
            6.291538590259457,
            6.3696638073160745,
            6.380910479778317,
            6.380910479778317,
            6.915719569074788,
            7.207360694023635,
            7.443908550097128,
            7.443908550097128,
            7.64923010791479,
            7.766540287714323,
            7.766540287714323,
            7.878495164900337,
            8.099247954966563,
            8.256353623905564,
            8.256353623905564,
            8.486060345828035,
            8.5277825083166,
            8.605339420202574,
            8.673639573299516,
            8.673639573299516,
            9.16170489673265,
            9.520967845093654,
            9.520967845093654,
            9.525162988289136,
            9.705485919901246,
            10.239946026347365,
            10.657956910475084,
            10.689419961041722,
            10.689419961041722,
            11.723437988344248,
            11.918074330752953,
            11.918074330752953,
            11.941896028863864,
            12.293349587578271,
            13.16320917517761,
            13.62001885234435,
            13.62001885234435,
            15.009697056220142,
            15.054847650396407,
            15.187249730501284,
            15.187249730501284,
            15.719238051128256,
            17.239128990555393,
            17.239128990555393,
            18.244683798958764,
            18.57086728781078,
            18.748564931309534,
            19.25940970923933,
            19.25940970923933
        ]
    },
    "born_effective_charge": {
        "avg_abs_trace": 1.661082857142857,
        "tensors": [
            [
                [
                    1.02658,
                    0.01699,
                    -0.02644
                ],
                [
                    -0.01158,
                    1.02402,
                    -0.01196
                ],
                [
                    0.02135,
                    0.0123,
                    1.01495
                ]
            ],
            [
                [
                    1.02402,
                    0.01158,
                    0.01198
                ],
                [
                    -0.01699,
                    1.02658,
                    -0.02644
                ],
                [
                    -0.0123,
                    0.02135,
                    1.01495
                ]
            ],
            [
                [
                    1.02402,
                    -0.01158,
                    -0.01198
                ],
                [
                    0.01695,
                    1.02658,
                    -0.02644
                ],
                [
                    0.01232,
                    0.02134,
                    1.01497
                ]
            ],
            [
                [
                    1.02658,
                    0.01695,
                    0.02644
                ],
                [
                    -0.01158,
                    1.02402,
                    0.01198
                ],
                [
                    -0.02135,
                    -0.0123,
                    1.01495
                ]
            ],
            [
                [
                    1.02402,
                    0.01158,
                    -0.01196
                ],
                [
                    -0.01695,
                    1.02658,
                    0.02644
                ],
                [
                    0.0123,
                    -0.02135,
                    1.01495
                ]
            ],
            [
                [
                    1.02658,
                    -0.01695,
                    -0.02644
                ],
                [
                    0.01158,
                    1.02402,
                    0.01196
                ],
                [
                    0.02134,
                    -0.01232,
                    1.01497
                ]
            ],
            [
                [
                    1.02402,
                    -0.01158,
                    0.01196
                ],
                [
                    0.01699,
                    1.02658,
                    0.02644
                ],
                [
                    -0.01232,
                    -0.02134,
                    1.01497
                ]
            ],
            [
                [
                    1.02658,
                    -0.01699,
                    0.02644
                ],
                [
                    0.01158,
                    1.02402,
                    -0.01198
                ],
                [
                    -0.02134,
                    0.01232,
                    1.01497
                ]
            ],
            [
                [
                    1.86826,
                    0.2186,
                    0.03412
                ],
                [
                    0.09045,
                    1.83117,
                    0.05445
                ],
                [
                    -0.22156,
                    0.21178,
                    1.95576
                ]
            ],
            [
                [
                    1.83121,
                    -0.09049,
                    -0.05447
                ],
                [
                    -0.21861,
                    1.86826,
                    0.03412
                ],
                [
                    -0.21178,
                    -0.22156,
                    1.95576
                ]
            ],
            [
                [
                    1.83117,
                    0.09045,
                    -0.05445
                ],
                [
                    0.21861,
                    1.86826,
                    -0.03412
                ],
                [
                    -0.21179,
                    0.22151,
                    1.95569
                ]
            ],
            [
                [
                    1.86826,
                    -0.2186,
                    -0.03412
                ],
                [
                    -0.09049,
                    1.83121,
                    0.05447
                ],
                [
                    0.22151,
                    0.21179,
                    1.95569
                ]
            ],
            [
                [
                    1.86817,
                    -0.21842,
                    0.03409
                ],
                [
                    -0.09045,
                    1.83117,
                    -0.05445
                ],
                [
                    -0.22151,
                    -0.21179,
                    1.95569
                ]
            ],
            [
                [
                    1.83121,
                    0.09049,
                    0.05447
                ],
                [
                    0.21842,
                    1.86817,
                    0.03409
                ],
                [
                    0.21179,
                    -0.22151,
                    1.95569
                ]
            ],
            [
                [
                    1.83117,
                    -0.09045,
                    0.05445
                ],
                [
                    -0.21842,
                    1.86817,
                    -0.03409
                ],
                [
                    0.21178,
                    0.22156,
                    1.95576
                ]
            ],
            [
                [
                    1.86817,
                    0.21842,
                    -0.03409
                ],
                [
                    0.09049,
                    1.83121,
                    -0.05447
                ],
                [
                    0.22156,
                    -0.21178,
                    1.95576
                ]
            ],
            [
                [
                    -1.83824,
                    -0.29263,
                    -0.38707
                ],
                [
                    -0.29276,
                    -1.83821,
                    -0.38704
                ],
                [
                    -0.36612,
                    -0.36611,
                    -1.98213
                ]
            ],
            [
                [
                    -1.75009,
                    0.49632,
                    -0.10983
                ],
                [
                    0.67001,
                    -2.16166,
                    0.29258
                ],
                [
                    -0.01729,
                    0.17936,
                    -1.97965
                ]
            ],
            [
                [
                    -2.16169,
                    0.66994,
                    0.29278
                ],
                [
                    0.49625,
                    -1.7501,
                    -0.10976
                ],
                [
                    0.17935,
                    -0.01734,
                    -1.97959
                ]
            ],
            [
                [
                    -1.7501,
                    0.49625,
                    0.10976
                ],
                [
                    0.66994,
                    -2.16169,
                    -0.29278
                ],
                [
                    0.01729,
                    -0.17936,
                    -1.97965
                ]
            ],
            [
                [
                    -1.83821,
                    -0.29276,
                    0.38704
                ],
                [
                    -0.29263,
                    -1.83824,
                    0.38707
                ],
                [
                    0.36612,
                    0.36611,
                    -1.98213
                ]
            ],
            [
                [
                    -2.16169,
                    -0.66994,
                    -0.29278
                ],
                [
                    -0.49632,
                    -1.75009,
                    -0.10983
                ],
                [
                    -0.17936,
                    -0.01729,
                    -1.97965
                ]
            ],
            [
                [
                    -1.83824,
                    0.29263,
                    0.38707
                ],
                [
                    0.29263,
                    -1.83824,
                    -0.38707
                ],
                [
                    0.36611,
                    -0.36612,
                    -1.98213
                ]
            ],
            [
                [
                    -2.16166,
                    0.67001,
                    -0.29258
                ],
                [
                    0.49632,
                    -1.75009,
                    0.10983
                ],
                [
                    -0.17935,
                    0.01734,
                    -1.97959
                ]
            ],
            [
                [
                    -2.16166,
                    -0.67001,
                    0.29258
                ],
                [
                    -0.49625,
                    -1.7501,
                    0.10976
                ],
                [
                    0.17936,
                    0.01729,
                    -1.97965
                ]
            ],
            [
                [
                    -1.7501,
                    -0.49625,
                    -0.10976
                ],
                [
                    -0.67001,
                    -2.16166,
                    -0.29258
                ],
                [
                    -0.01734,
                    -0.17935,
                    -1.97959
                ]
            ],
            [
                [
                    -1.75009,
                    -0.49632,
                    0.10983
                ],
                [
                    -0.66994,
                    -2.16169,
                    0.29278
                ],
                [
                    0.01734,
                    0.17935,
                    -1.97959
                ]
            ],
            [
                [
                    -1.83821,
                    0.29276,
                    -0.38704
                ],
                [
                    0.29276,
                    -1.83821,
                    0.38704
                ],
                [
                    -0.36611,
                    0.36612,
                    -1.98213
                ]
            ]
        ]
    },
    "band_gap": 1.7824,
    "is_direct": false,
    "formula": "Na2Zn2O3"
}