{
    "mp_id": "mp-555434",
    "nelements": 2,
    "nsites": 28,
    "elements": [
        "As",
        "O"
    ],
    "structure": {
        "@module": "pymatgen.core.structure",
        "@class": "Structure",
        "charge": null,
        "lattice": {
            "matrix": [
                [
                    8.67482425,
                    0.0,
                    0.0
                ],
                [
                    0.0,
                    8.67482425,
                    0.0
                ],
                [
                    0.0,
                    0.0,
                    4.65024962
                ]
            ],
            "a": 8.67482425,
            "b": 8.67482425,
            "c": 4.65024962,
            "alpha": 90.0,
            "beta": 90.0,
            "gamma": 90.0,
            "volume": 349.94326187096783
        },
        "sites": [
            {
                "species": [
                    {
                        "element": "As",
                        "occu": 1
                    }
                ],
                "abc": [
                    0.59768144,
                    0.59768144,
                    0.5
                ],
                "xyz": [
                    5.184781449486921,
                    5.184781449486921,
                    2.32512481
                ],
                "label": "As",
                "properties": {}
            },
            {
                "species": [
                    {
                        "element": "As",
                        "occu": 1
                    }
                ],
                "abc": [
                    0.21563466,
                    0.21563466,
                    0.5
                ],
                "xyz": [
                    1.8705927777085052,
                    1.8705927777085052,
                    2.32512481
                ],
                "label": "As",
                "properties": {}
            },
            {
                "species": [
                    {
                        "element": "As",
                        "occu": 1
                    }
                ],
                "abc": [
                    0.78436534,
                    0.78436534,
                    0.0
                ],
                "xyz": [
                    6.804231472291495,
                    6.804231472291495,
                    0.0
                ],
                "label": "As",
                "properties": {}
            },
            {
                "species": [
                    {
                        "element": "As",
                        "occu": 1
                    }
                ],
                "abc": [
                    0.28436534,
                    0.71563466,
                    0.75
                ],
                "xyz": [
                    2.466819347291495,
                    6.208004902708505,
                    3.4876872150000002
                ],
                "label": "As",
                "properties": {}
            },
            {
                "species": [
                    {
                        "element": "As",
                        "occu": 1
                    }
                ],
                "abc": [
                    0.09768144,
                    0.90231856,
                    0.25
                ],
                "xyz": [
                    0.84736932448692,
                    7.82745492551308,
                    1.162562405
                ],
                "label": "As",
                "properties": {}
            },
            {
                "species": [
                    {
                        "element": "As",
                        "occu": 1
                    }
                ],
                "abc": [
                    0.40231856,
                    0.40231856,
                    0.0
                ],
                "xyz": [
                    3.49004280051308,
                    3.49004280051308,
                    0.0
                ],
                "label": "As",
                "properties": {}
            },
            {
                "species": [
                    {
                        "element": "As",
                        "occu": 1
                    }
                ],
                "abc": [
                    0.71563466,
                    0.28436534,
                    0.25
                ],
                "xyz": [
                    6.208004902708505,
                    2.466819347291495,
                    1.162562405
                ],
                "label": "As",
                "properties": {}
            },
            {
                "species": [
                    {
                        "element": "As",
                        "occu": 1
                    }
                ],
                "abc": [
                    0.90231856,
                    0.09768144,
                    0.75
                ],
                "xyz": [
                    7.82745492551308,
                    0.84736932448692,
                    3.4876872150000002
                ],
                "label": "As",
                "properties": {}
            },
            {
                "species": [
                    {
                        "element": "O",
                        "occu": 1
                    }
                ],
                "abc": [
                    0.97770802,
                    0.75424071,
                    0.0714754
                ],
                "xyz": [
                    8.481445241315486,
                    6.542905601445218,
                    0.332378451689348
                ],
                "label": "O",
                "properties": {}
            },
            {
                "species": [
                    {
                        "element": "O",
                        "occu": 1
                    }
                ],
                "abc": [
                    0.02229198,
                    0.24575929,
                    0.5714754
                ],
                "xyz": [
                    0.193379008684515,
                    2.1319186485547825,
                    2.657503261689348
                ],
                "label": "O",
                "properties": {}
            },
            {
                "species": [
                    {
                        "element": "O",
                        "occu": 1
                    }
                ],
                "abc": [
                    0.23367,
                    0.34625359,
                    0.22870345
                ],
                "xyz": [
                    2.0270461824975,
                    3.0036890391815576,
                    1.063528131455189
                ],
                "label": "O",
                "properties": {}
            },
            {
                "species": [
                    {
                        "element": "O",
                        "occu": 1
                    }
                ],
                "abc": [
                    0.55787643,
                    0.44212357,
                    0.75
                ],
                "xyz": [
                    4.839479983467427,
                    3.835344266532573,
                    3.4876872150000002
                ],
                "label": "O",
                "properties": {}
            },
            {
                "species": [
                    {
                        "element": "O",
                        "occu": 1
                    }
                ],
                "abc": [
                    0.94212357,
                    0.94212357,
                    0.5
                ],
                "xyz": [
                    8.172756391532573,
                    8.172756391532573,
                    2.32512481
                ],
                "label": "O",
                "properties": {}
            },
            {
                "species": [
                    {
                        "element": "O",
                        "occu": 1
                    }
                ],
                "abc": [
                    0.65374641,
                    0.76633,
                    0.27129655
                ],
                "xyz": [
                    5.671135210818442,
                    6.6477780675025,
                    1.2615966785448112
                ],
                "label": "O",
                "properties": {}
            },
            {
                "species": [
                    {
                        "element": "O",
                        "occu": 1
                    }
                ],
                "abc": [
                    0.44212357,
                    0.55787643,
                    0.25
                ],
                "xyz": [
                    3.835344266532573,
                    4.839479983467427,
                    1.162562405
                ],
                "label": "O",
                "properties": {}
            },
            {
                "species": [
                    {
                        "element": "O",
                        "occu": 1
                    }
                ],
                "abc": [
                    0.74575929,
                    0.47770802,
                    0.3214754
                ],
                "xyz": [
                    6.469330773554782,
                    4.1440331163154855,
                    1.4949408566893483
                ],
                "label": "O",
                "properties": {}
            },
            {
                "species": [
                    {
                        "element": "O",
                        "occu": 1
                    }
                ],
                "abc": [
                    0.84625359,
                    0.26633,
                    0.97870345
                ],
                "xyz": [
                    7.341101164181558,
                    2.3103659425025,
                    4.55121534645519
                ],
                "label": "O",
                "properties": {}
            },
            {
                "species": [
                    {
                        "element": "O",
                        "occu": 1
                    }
                ],
                "abc": [
                    0.15374641,
                    0.73367,
                    0.47870345
                ],
                "xyz": [
                    1.3337230858184426,
                    6.3644583074975,
                    2.226090536455189
                ],
                "label": "O",
                "properties": {}
            },
            {
                "species": [
                    {
                        "element": "O",
                        "occu": 1
                    }
                ],
                "abc": [
                    0.47770802,
                    0.74575929,
                    0.6785246
                ],
                "xyz": [
                    4.1440331163154855,
                    6.469330773554782,
                    3.1553087633106522
                ],
                "label": "O",
                "properties": {}
            },
            {
                "species": [
                    {
                        "element": "O",
                        "occu": 1
                    }
                ],
                "abc": [
                    0.05787643,
                    0.05787643,
                    0.0
                ],
                "xyz": [
                    0.5020678584674275,
                    0.5020678584674275,
                    0.0
                ],
                "label": "O",
                "properties": {}
            },
            {
                "species": [
                    {
                        "element": "O",
                        "occu": 1
                    }
                ],
                "abc": [
                    0.34625359,
                    0.23367,
                    0.77129655
                ],
                "xyz": [
                    3.0036890391815576,
                    2.0270461824975,
                    3.586721488544811
                ],
                "label": "O",
                "properties": {}
            },
            {
                "species": [
                    {
                        "element": "O",
                        "occu": 1
                    }
                ],
                "abc": [
                    0.26633,
                    0.84625359,
                    0.02129655
                ],
                "xyz": [
                    2.3103659425025,
                    7.341101164181558,
                    0.09903427354481101
                ],
                "label": "O",
                "properties": {}
            },
            {
                "species": [
                    {
                        "element": "O",
                        "occu": 1
                    }
                ],
                "abc": [
                    0.24575929,
                    0.02229198,
                    0.4285246
                ],
                "xyz": [
                    2.1319186485547825,
                    0.193379008684515,
                    1.992746358310652
                ],
                "label": "O",
                "properties": {}
            },
            {
                "species": [
                    {
                        "element": "O",
                        "occu": 1
                    }
                ],
                "abc": [
                    0.76633,
                    0.65374641,
                    0.72870345
                ],
                "xyz": [
                    6.6477780675025,
                    5.671135210818442,
                    3.3886529414551894
                ],
                "label": "O",
                "properties": {}
            },
            {
                "species": [
                    {
                        "element": "O",
                        "occu": 1
                    }
                ],
                "abc": [
                    0.73367,
                    0.15374641,
                    0.52129655
                ],
                "xyz": [
                    6.3644583074975,
                    1.3337230858184426,
                    2.424159083544811
                ],
                "label": "O",
                "properties": {}
            },
            {
                "species": [
                    {
                        "element": "O",
                        "occu": 1
                    }
                ],
                "abc": [
                    0.25424071,
                    0.52229198,
                    0.8214754
                ],
                "xyz": [
                    2.205493476445217,
                    4.530791133684515,
                    3.820065666689348
                ],
                "label": "O",
                "properties": {}
            },
            {
                "species": [
                    {
                        "element": "O",
                        "occu": 1
                    }
                ],
                "abc": [
                    0.52229198,
                    0.25424071,
                    0.1785246
                ],
                "xyz": [
                    4.530791133684515,
                    2.205493476445217,
                    0.8301839533106521
                ],
                "label": "O",
                "properties": {}
            },
            {
                "species": [
                    {
                        "element": "O",
                        "occu": 1
                    }
                ],
                "abc": [
                    0.75424071,
                    0.97770802,
                    0.9285246
                ],
                "xyz": [
                    6.542905601445218,
                    8.481445241315486,
                    4.317871168310653
                ],
                "label": "O",
                "properties": {}
            }
        ]
    },
    "spacegroup": {
        "source": "spglib",
        "symbol": "P4_12_12",
        "number": 92,
        "point_group": "422",
        "crystal_system": "tetragonal",
        "hall": "P 4abw 2nw"
    },
    "dielectric": {
        "epsilon_ionic": [
            [
                5.08775103,
                -3.5e-07,
                0.0
            ],
            [
                -3.5e-07,
                5.08775106,
                0.0
            ],
            [
                0.0,
                0.0,
                7.93976959
            ]
        ],
        "epsilon_ionic_avg": 6.038423893333333,
        "epsilon_ionic_eig": [
            5.087750694678719,
            5.087751395321281,
            7.93976959
        ],
        "epsilon_electronic": [
            [
                3.67514662,
                0.0,
                0.0
            ],
            [
                0.0,
                3.67514662,
                0.0
            ],
            [
                0.0,
                -0.0,
                3.91722291
            ]
        ],
        "epsilon_electronic_avg": 3.7558387166666667,
        "epsilon_electronic_eig": [
            3.67514662,
            3.67514662,
            3.91722291
        ]
    },
    "phonon": {
        "lowest_freq": -0.08158562190372837,
        "frequency": [
            -0.08158562190372837,
            -0.041642467708537634,
            -0.041642467708537634,
            0.7697314803218401,
            1.472347993552057,
            1.7801011566656246,
            3.184192482606563,
            3.868539339477876,
            3.868539339477876,
            4.446980974421889,
            4.446980974421889,
            4.964084727662306,
            5.601639991264871,
            5.601639991264871,
            5.766471705554856,
            5.825607698874766,
            6.237399862120108,
            6.237399862120108,
            6.294694043278066,
            6.5501970911787835,
            6.670524972379007,
            6.6871025258333585,
            7.0387628646078735,
            7.482094401108511,
            7.482094401108511,
            7.894763365962458,
            7.896239408774065,
            7.896239408774065,
            8.139480120065686,
            8.571905526454916,
            8.571905526454916,
            8.75455407738292,
            8.919690296803738,
            9.258179587694523,
            9.321446728019398,
            9.80554764098523,
            9.80554764098523,
            10.19554747025456,
            10.521018395915242,
            10.618707504931129,
            10.618707504931129,
            11.086555989155851,
            11.933493192854852,
            11.933493192854852,
            12.40627209367257,
            12.40627209367257,
            12.549244464670382,
            12.893304064733936,
            12.938994053077097,
            12.938994053077097,
            13.15056954931726,
            13.701141623676497,
            13.927572229535246,
            14.133488592081408,
            15.192960512747542,
            15.192960512747542,
            16.30497579411919,
            16.31014373454293,
            16.31014373454293,
            16.348056056156928,
            16.730355450719063,
            16.816312702195297,
            16.816312702195297,
            18.155073692331914,
            19.98069577577619,
            20.21430151791948,
            21.622657981423185,
            21.622657981423185,
            22.286258286446238,
            22.347189711026633,
            22.820005845319702,
            22.820005845319702,
            23.38155960007486,
            24.13312242364457,
            24.13312242364457,
            24.378826278888443,
            24.81540471782182,
            25.291351305878084,
            25.59105966461297,
            25.59105966461297,
            26.63504131134231,
            26.95036476040585,
            26.95036476040585,
            27.65697924069549
        ]
    },
    "born_effective_charge": {
        "avg_abs_trace": 2.5516190476190475,
        "tensors": [
            [
                [
                    4.70018,
                    0.39444,
                    -0.89248
                ],
                [
                    0.39444,
                    4.70018,
                    0.89248
                ],
                [
                    0.52439,
                    -0.52436,
                    5.47422
                ]
            ],
            [
                [
                    3.9765,
                    1.25167,
                    -0.24607
                ],
                [
                    1.25167,
                    3.9765,
                    0.24607
                ],
                [
                    -0.09954,
                    0.09963,
                    3.96444
                ]
            ],
            [
                [
                    3.97642,
                    1.25175,
                    0.2461
                ],
                [
                    1.25175,
                    3.97642,
                    -0.2461
                ],
                [
                    0.09954,
                    -0.09963,
                    3.96444
                ]
            ],
            [
                [
                    3.97642,
                    -1.25175,
                    -0.2461
                ],
                [
                    -1.25167,
                    3.9765,
                    -0.24607
                ],
                [
                    -0.09963,
                    -0.09954,
                    3.96444
                ]
            ],
            [
                [
                    4.70018,
                    -0.39444,
                    0.89248
                ],
                [
                    -0.39454,
                    4.70024,
                    0.89248
                ],
                [
                    -0.52436,
                    -0.52439,
                    5.47422
                ]
            ],
            [
                [
                    4.70024,
                    0.39454,
                    0.89248
                ],
                [
                    0.39454,
                    4.70024,
                    -0.89248
                ],
                [
                    -0.52439,
                    0.52436,
                    5.47422
                ]
            ],
            [
                [
                    3.9765,
                    -1.25167,
                    0.24607
                ],
                [
                    -1.25175,
                    3.97642,
                    0.2461
                ],
                [
                    0.09963,
                    0.09954,
                    3.96444
                ]
            ],
            [
                [
                    4.70024,
                    -0.39454,
                    -0.89248
                ],
                [
                    -0.39444,
                    4.70018,
                    -0.89248
                ],
                [
                    0.52436,
                    0.52439,
                    5.47422
                ]
            ],
            [
                [
                    -2.59462,
                    -0.54734,
                    -0.60307
                ],
                [
                    -0.47689,
                    -1.32002,
                    -0.29193
                ],
                [
                    -0.63148,
                    -0.21738,
                    -1.39591
                ]
            ],
            [
                [
                    -2.59486,
                    -0.54726,
                    0.60299
                ],
                [
                    -0.47689,
                    -1.31994,
                    0.29208
                ],
                [
                    0.63148,
                    0.21738,
                    -1.39591
                ]
            ],
            [
                [
                    -1.65527,
                    -0.74267,
                    0.7551
                ],
                [
                    -0.70036,
                    -1.56353,
                    0.7785
                ],
                [
                    0.76977,
                    0.75133,
                    -2.21366
                ]
            ],
            [
                [
                    -1.54354,
                    -0.22943,
                    0.54209
                ],
                [
                    -0.22956,
                    -1.54332,
                    0.54194
                ],
                [
                    0.54873,
                    0.54872,
                    -2.21951
                ]
            ],
            [
                [
                    -1.54332,
                    0.22956,
                    0.54194
                ],
                [
                    0.22956,
                    -1.54332,
                    -0.54194
                ],
                [
                    0.54872,
                    -0.54873,
                    -2.21951
                ]
            ],
            [
                [
                    -1.56325,
                    -0.7005,
                    0.77825
                ],
                [
                    -0.74268,
                    -1.65499,
                    0.75502
                ],
                [
                    0.75144,
                    0.76961,
                    -2.21363
                ]
            ],
            [
                [
                    -1.54332,
                    -0.22956,
                    -0.54194
                ],
                [
                    -0.22943,
                    -1.54354,
                    -0.54209
                ],
                [
                    -0.54873,
                    -0.54872,
                    -2.21951
                ]
            ],
            [
                [
                    -1.31994,
                    0.47689,
                    0.29208
                ],
                [
                    0.54734,
                    -2.59462,
                    -0.60307
                ],
                [
                    0.21738,
                    -0.63148,
                    -1.39591
                ]
            ],
            [
                [
                    -1.56353,
                    0.70036,
                    0.77851
                ],
                [
                    0.74268,
                    -1.65499,
                    -0.75502
                ],
                [
                    0.75133,
                    -0.76977,
                    -2.21366
                ]
            ],
            [
                [
                    -1.56325,
                    0.7005,
                    -0.77825
                ],
                [
                    0.74267,
                    -1.65527,
                    0.7551
                ],
                [
                    -0.75133,
                    0.76977,
                    -2.21366
                ]
            ],
            [
                [
                    -2.59462,
                    0.54734,
                    0.60307
                ],
                [
                    0.47689,
                    -1.31994,
                    -0.29208
                ],
                [
                    0.63142,
                    -0.21722,
                    -1.39595
                ]
            ],
            [
                [
                    -1.54354,
                    0.22943,
                    -0.54209
                ],
                [
                    0.22943,
                    -1.54354,
                    0.54209
                ],
                [
                    -0.54872,
                    0.54873,
                    -2.21951
                ]
            ],
            [
                [
                    -1.56353,
                    -0.70036,
                    -0.77851
                ],
                [
                    -0.74267,
                    -1.65527,
                    -0.7551
                ],
                [
                    -0.75144,
                    -0.76961,
                    -2.21363
                ]
            ],
            [
                [
                    -1.65499,
                    0.74268,
                    0.75502
                ],
                [
                    0.70036,
                    -1.56353,
                    -0.7785
                ],
                [
                    0.76961,
                    -0.75144,
                    -2.21363
                ]
            ],
            [
                [
                    -1.31994,
                    -0.47689,
                    -0.29208
                ],
                [
                    -0.54726,
                    -2.59486,
                    -0.60299
                ],
                [
                    -0.21722,
                    -0.63142,
                    -1.39595
                ]
            ],
            [
                [
                    -1.65499,
                    -0.74268,
                    -0.75502
                ],
                [
                    -0.7005,
                    -1.56325,
                    -0.77825
                ],
                [
                    -0.76977,
                    -0.75133,
                    -2.21366
                ]
            ],
            [
                [
                    -1.65527,
                    0.74267,
                    -0.7551
                ],
                [
                    0.7005,
                    -1.56325,
                    0.77825
                ],
                [
                    -0.76961,
                    0.75144,
                    -2.21363
                ]
            ],
            [
                [
                    -1.32002,
                    0.47689,
                    -0.29193
                ],
                [
                    0.54726,
                    -2.59486,
                    0.60299
                ],
                [
                    -0.21738,
                    0.63148,
                    -1.39591
                ]
            ],
            [
                [
                    -2.59486,
                    0.54726,
                    -0.60299
                ],
                [
                    0.47689,
                    -1.32002,
                    0.29193
                ],
                [
                    -0.63142,
                    0.21722,
                    -1.39595
                ]
            ],
            [
                [
                    -1.32002,
                    -0.47689,
                    0.29193
                ],
                [
                    -0.54734,
                    -2.59462,
                    0.60307
                ],
                [
                    0.21722,
                    0.63142,
                    -1.39595
                ]
            ]
        ]
    },
    "band_gap": 1.6018999999999999,
    "is_direct": true,
    "formula": "As2O5"
}