{
    "mp_id": "mp-546794",
    "nelements": 2,
    "nsites": 6,
    "elements": [
        "O",
        "Si"
    ],
    "structure": {
        "@module": "pymatgen.core.structure",
        "@class": "Structure",
        "charge": null,
        "lattice": {
            "matrix": [
                [
                    -2.50047724,
                    2.50047724,
                    3.67548916
                ],
                [
                    2.50047724,
                    -2.50047724,
                    3.67548916
                ],
                [
                    2.50047724,
                    2.50047724,
                    -3.67548916
                ]
            ],
            "a": 5.100391496816057,
            "b": 5.100391496816057,
            "c": 5.100391496816057,
            "alpha": 121.28570492236712,
            "beta": 121.28570492236712,
            "gamma": 87.78715542475585,
            "volume": 91.92231415742287
        },
        "sites": [
            {
                "species": [
                    {
                        "element": "Si",
                        "occu": 1
                    }
                ],
                "abc": [
                    0.75,
                    0.25,
                    0.5
                ],
                "xyz": [
                    2.220446049250313e-16,
                    2.5004772399999995,
                    1.83774458
                ],
                "label": "Si",
                "properties": {}
            },
            {
                "species": [
                    {
                        "element": "Si",
                        "occu": 1
                    }
                ],
                "abc": [
                    0.0,
                    0.0,
                    0.0
                ],
                "xyz": [
                    0.0,
                    0.0,
                    0.0
                ],
                "label": "Si",
                "properties": {}
            },
            {
                "species": [
                    {
                        "element": "O",
                        "occu": 1
                    }
                ],
                "abc": [
                    0.78142268,
                    0.625,
                    0.65642268
                ],
                "xyz": [
                    1.2502386200000002,
                    2.0325013223196065,
                    2.7566168700000007
                ],
                "label": "O",
                "properties": {}
            },
            {
                "species": [
                    {
                        "element": "O",
                        "occu": 1
                    }
                ],
                "abc": [
                    0.875,
                    0.21857732,
                    0.84357732
                ],
                "xyz": [
                    0.4679759176803935,
                    3.75071586,
                    0.9188722900000004
                ],
                "label": "O",
                "properties": {}
            },
            {
                "species": [
                    {
                        "element": "O",
                        "occu": 1
                    }
                ],
                "abc": [
                    0.375,
                    0.03142268,
                    0.15642268
                ],
                "xyz": [
                    -0.46797591768039354,
                    1.25023862,
                    0.9188722900000001
                ],
                "label": "O",
                "properties": {}
            },
            {
                "species": [
                    {
                        "element": "O",
                        "occu": 1
                    }
                ],
                "abc": [
                    0.96857732,
                    0.125,
                    0.34357732
                ],
                "xyz": [
                    -1.25023862,
                    2.9684531576803934,
                    2.75661687
                ],
                "label": "O",
                "properties": {}
            }
        ]
    },
    "spacegroup": {
        "source": "spglib",
        "symbol": "I-42d",
        "number": 122,
        "point_group": "-42m",
        "crystal_system": "tetragonal",
        "hall": "I -4 2bw"
    },
    "dielectric": {
        "epsilon_ionic": [
            [
                1.60410202,
                -1e-08,
                -0.0
            ],
            [
                -1e-08,
                1.60410107,
                0.0
            ],
            [
                -0.0,
                0.0,
                1.79352263
            ]
        ],
        "epsilon_ionic_avg": 1.6672419066666666,
        "epsilon_ionic_eig": [
            1.6041020201052516,
            1.6041010698947484,
            1.79352263
        ],
        "epsilon_electronic": [
            [
                2.21338405,
                0.0,
                0.0
            ],
            [
                0.0,
                2.21338405,
                0.0
            ],
            [
                0.0,
                0.0,
                2.22339474
            ]
        ],
        "epsilon_electronic_avg": 2.216720946666667,
        "epsilon_electronic_eig": [
            2.21338405,
            2.21338405,
            2.22339474
        ]
    },
    "phonon": {
        "lowest_freq": -0.05182102483906762,
        "frequency": [
            -0.05182102483906762,
            -0.05182102483906762,
            -0.007988712268505746,
            3.784893338100747,
            3.784893338100747,
            9.250493491003885,
            10.562935926059232,
            12.188831278872794,
            12.621874885513112,
            13.232186885097116,
            13.232186885097116,
            22.520772995097072,
            22.894392302156007,
            22.894392302156007,
            31.941496444343336,
            32.20662702428871,
            32.20662702428871,
            33.267164043013224
        ]
    },
    "born_effective_charge": {
        "avg_abs_trace": 2.203097222222222,
        "tensors": [
            [
                [
                    3.28238,
                    -0.38106,
                    0.0
                ],
                [
                    0.38106,
                    3.28238,
                    0.0
                ],
                [
                    0.0,
                    -0.0,
                    3.34918
                ]
            ],
            [
                [
                    3.28238,
                    0.38106,
                    -0.0
                ],
                [
                    -0.38106,
                    3.28238,
                    -0.0
                ],
                [
                    0.0,
                    -0.0,
                    3.34918
                ]
            ],
            [
                [
                    -2.22698,
                    0.00011,
                    -0.90713
                ],
                [
                    0.0,
                    -1.05547,
                    -0.0
                ],
                [
                    -0.88908,
                    -5e-05,
                    -1.67459
                ]
            ],
            [
                [
                    -1.05532,
                    0.0,
                    0.0
                ],
                [
                    -8e-05,
                    -2.22698,
                    0.90713
                ],
                [
                    5e-05,
                    0.88908,
                    -1.67459
                ]
            ],
            [
                [
                    -1.05548,
                    0.0,
                    -0.0
                ],
                [
                    8e-05,
                    -2.22698,
                    -0.90713
                ],
                [
                    -5e-05,
                    -0.88908,
                    -1.67459
                ]
            ],
            [
                [
                    -2.22698,
                    -0.00011,
                    0.90713
                ],
                [
                    -0.0,
                    -1.05532,
                    -0.0
                ],
                [
                    0.88908,
                    5e-05,
                    -1.67459
                ]
            ]
        ]
    },
    "band_gap": 5.786300000000001,
    "is_direct": false,
    "formula": "SiO2"
}