{
    "mp_id": "mp-541462",
    "nelements": 3,
    "nsites": 32,
    "elements": [
        "O",
        "Sr",
        "Ta"
    ],
    "structure": {
        "@module": "pymatgen.core.structure",
        "@class": "Structure",
        "charge": null,
        "lattice": {
            "matrix": [
                [
                    6.27400012,
                    0.0,
                    0.0
                ],
                [
                    -3.13700006,
                    5.43344346,
                    0.0
                ],
                [
                    0.0,
                    0.0,
                    12.40832907
                ]
            ],
            "a": 6.27400012,
            "b": 6.274000096386417,
            "c": 12.40832907,
            "alpha": 90.0,
            "beta": 90.0,
            "gamma": 120.00000012450288,
            "volume": 422.9928022150788
        },
        "sites": [
            {
                "species": [
                    {
                        "element": "Sr",
                        "occu": 1
                    }
                ],
                "abc": [
                    0.666667,
                    0.333333,
                    0.25
                ],
                "xyz": [
                    3.1370031970000607,
                    1.81114600885218,
                    3.1020822675
                ],
                "label": "Sr",
                "properties": {}
            },
            {
                "species": [
                    {
                        "element": "Sr",
                        "occu": 1
                    }
                ],
                "abc": [
                    0.333333,
                    0.666667,
                    0.75
                ],
                "xyz": [
                    -3.1370000601604886e-06,
                    3.62229745114782,
                    9.3062468025
                ],
                "label": "Sr",
                "properties": {}
            },
            {
                "species": [
                    {
                        "element": "Ta",
                        "occu": 1
                    }
                ],
                "abc": [
                    0.333333,
                    0.666667,
                    0.25
                ],
                "xyz": [
                    -3.1370000601604886e-06,
                    3.62229745114782,
                    3.1020822675
                ],
                "label": "Ta",
                "properties": {}
            },
            {
                "species": [
                    {
                        "element": "Ta",
                        "occu": 1
                    }
                ],
                "abc": [
                    0.666667,
                    0.333333,
                    0.75
                ],
                "xyz": [
                    3.1370031970000607,
                    1.81114600885218,
                    9.3062468025
                ],
                "label": "Ta",
                "properties": {}
            },
            {
                "species": [
                    {
                        "element": "Ta",
                        "occu": 1
                    }
                ],
                "abc": [
                    0.35996132,
                    0.0,
                    0.0
                ],
                "xyz": [
                    2.2583973648753584,
                    0.0,
                    0.0
                ],
                "label": "Ta",
                "properties": {}
            },
            {
                "species": [
                    {
                        "element": "Ta",
                        "occu": 1
                    }
                ],
                "abc": [
                    0.35996132,
                    0.35996132,
                    0.5
                ],
                "xyz": [
                    1.1291986824376792,
                    1.955829480006967,
                    6.204164535
                ],
                "label": "Ta",
                "properties": {}
            },
            {
                "species": [
                    {
                        "element": "Ta",
                        "occu": 1
                    }
                ],
                "abc": [
                    0.0,
                    0.64003868,
                    0.5
                ],
                "xyz": [
                    -2.0078013775623207,
                    3.477613979993033,
                    6.204164535
                ],
                "label": "Ta",
                "properties": {}
            },
            {
                "species": [
                    {
                        "element": "Ta",
                        "occu": 1
                    }
                ],
                "abc": [
                    0.0,
                    0.35996132,
                    0.0
                ],
                "xyz": [
                    -1.1291986824376792,
                    1.955829480006967,
                    0.0
                ],
                "label": "Ta",
                "properties": {}
            },
            {
                "species": [
                    {
                        "element": "Ta",
                        "occu": 1
                    }
                ],
                "abc": [
                    0.64003868,
                    0.64003868,
                    0.0
                ],
                "xyz": [
                    2.0078013775623207,
                    3.477613979993033,
                    0.0
                ],
                "label": "Ta",
                "properties": {}
            },
            {
                "species": [
                    {
                        "element": "Ta",
                        "occu": 1
                    }
                ],
                "abc": [
                    0.64003868,
                    0.0,
                    0.5
                ],
                "xyz": [
                    4.015602755124641,
                    0.0,
                    6.204164535
                ],
                "label": "Ta",
                "properties": {}
            },
            {
                "species": [
                    {
                        "element": "O",
                        "occu": 1
                    }
                ],
                "abc": [
                    0.333333,
                    0.666667,
                    0.53593848
                ],
                "xyz": [
                    -3.1370000601604886e-06,
                    3.62229745114782,
                    6.6501010211156135
                ],
                "label": "O",
                "properties": {}
            },
            {
                "species": [
                    {
                        "element": "O",
                        "occu": 1
                    }
                ],
                "abc": [
                    0.666667,
                    0.333333,
                    0.03593848
                ],
                "xyz": [
                    3.1370031970000607,
                    1.81114600885218,
                    0.44593648611561365
                ],
                "label": "O",
                "properties": {}
            },
            {
                "species": [
                    {
                        "element": "O",
                        "occu": 1
                    }
                ],
                "abc": [
                    0.666667,
                    0.333333,
                    0.46406152
                ],
                "xyz": [
                    3.1370031970000607,
                    1.81114600885218,
                    5.758228048884387
                ],
                "label": "O",
                "properties": {}
            },
            {
                "species": [
                    {
                        "element": "O",
                        "occu": 1
                    }
                ],
                "abc": [
                    0.333333,
                    0.666667,
                    0.96406152
                ],
                "xyz": [
                    -3.1370000601604886e-06,
                    3.62229745114782,
                    11.962392583884387
                ],
                "label": "O",
                "properties": {}
            },
            {
                "species": [
                    {
                        "element": "O",
                        "occu": 1
                    }
                ],
                "abc": [
                    0.74813412,
                    0.0,
                    0.0
                ],
                "xyz": [
                    4.693793558656095,
                    0.0,
                    0.0
                ],
                "label": "O",
                "properties": {}
            },
            {
                "species": [
                    {
                        "element": "O",
                        "occu": 1
                    }
                ],
                "abc": [
                    0.74813412,
                    0.74813412,
                    0.5
                ],
                "xyz": [
                    2.3468967793280475,
                    4.064944441516856,
                    6.204164535
                ],
                "label": "O",
                "properties": {}
            },
            {
                "species": [
                    {
                        "element": "O",
                        "occu": 1
                    }
                ],
                "abc": [
                    0.0,
                    0.25186588,
                    0.5
                ],
                "xyz": [
                    -0.7901032806719528,
                    1.3684990184831447,
                    6.204164535
                ],
                "label": "O",
                "properties": {}
            },
            {
                "species": [
                    {
                        "element": "O",
                        "occu": 1
                    }
                ],
                "abc": [
                    0.0,
                    0.74813412,
                    0.0
                ],
                "xyz": [
                    -2.3468967793280475,
                    4.064944441516856,
                    0.0
                ],
                "label": "O",
                "properties": {}
            },
            {
                "species": [
                    {
                        "element": "O",
                        "occu": 1
                    }
                ],
                "abc": [
                    0.25186588,
                    0.25186588,
                    0.0
                ],
                "xyz": [
                    0.7901032806719528,
                    1.3684990184831447,
                    0.0
                ],
                "label": "O",
                "properties": {}
            },
            {
                "species": [
                    {
                        "element": "O",
                        "occu": 1
                    }
                ],
                "abc": [
                    0.25186588,
                    0.0,
                    0.5
                ],
                "xyz": [
                    1.5802065613439056,
                    0.0,
                    6.204164535
                ],
                "label": "O",
                "properties": {}
            },
            {
                "species": [
                    {
                        "element": "O",
                        "occu": 1
                    }
                ],
                "abc": [
                    0.36640925,
                    0.42812376,
                    0.34462943
                ],
                "xyz": [
                    0.9558274176616846,
                    2.32618624384261,
                    4.276275374646531
                ],
                "label": "O",
                "properties": {}
            },
            {
                "species": [
                    {
                        "element": "O",
                        "occu": 1
                    }
                ],
                "abc": [
                    0.93828549,
                    0.36640925,
                    0.84462943
                ],
                "xyz": [
                    4.737377437619704,
                    1.9908639430960053,
                    10.480439909646531
                ],
                "label": "O",
                "properties": {}
            },
            {
                "species": [
                    {
                        "element": "O",
                        "occu": 1
                    }
                ],
                "abc": [
                    0.42812376,
                    0.06171451,
                    0.84462943
                ],
                "xyz": [
                    2.4924501000419808,
                    0.33532230074660463,
                    10.480439909646531
                ],
                "label": "O",
                "properties": {}
            },
            {
                "species": [
                    {
                        "element": "O",
                        "occu": 1
                    }
                ],
                "abc": [
                    0.57187624,
                    0.93828549,
                    0.34462943
                ],
                "xyz": [
                    0.6445499599580198,
                    5.098121159253396,
                    4.276275374646531
                ],
                "label": "O",
                "properties": {}
            },
            {
                "species": [
                    {
                        "element": "O",
                        "occu": 1
                    }
                ],
                "abc": [
                    0.06171451,
                    0.63359075,
                    0.34462943
                ],
                "xyz": [
                    -1.600377377619704,
                    3.442579516903995,
                    4.276275374646531
                ],
                "label": "O",
                "properties": {}
            },
            {
                "species": [
                    {
                        "element": "O",
                        "occu": 1
                    }
                ],
                "abc": [
                    0.93828549,
                    0.57187624,
                    0.65537057
                ],
                "xyz": [
                    4.092827477661684,
                    3.107257216157391,
                    8.13205369535347
                ],
                "label": "O",
                "properties": {}
            },
            {
                "species": [
                    {
                        "element": "O",
                        "occu": 1
                    }
                ],
                "abc": [
                    0.63359075,
                    0.06171451,
                    0.65537057
                ],
                "xyz": [
                    3.7815500199580194,
                    0.33532230074660463,
                    8.13205369535347
                ],
                "label": "O",
                "properties": {}
            },
            {
                "species": [
                    {
                        "element": "O",
                        "occu": 1
                    }
                ],
                "abc": [
                    0.63359075,
                    0.57187624,
                    0.84462943
                ],
                "xyz": [
                    2.181172642338315,
                    3.107257216157391,
                    10.480439909646531
                ],
                "label": "O",
                "properties": {}
            },
            {
                "species": [
                    {
                        "element": "O",
                        "occu": 1
                    }
                ],
                "abc": [
                    0.42812376,
                    0.36640925,
                    0.65537057
                ],
                "xyz": [
                    1.5366226823802962,
                    1.9908639430960053,
                    8.13205369535347
                ],
                "label": "O",
                "properties": {}
            },
            {
                "species": [
                    {
                        "element": "O",
                        "occu": 1
                    }
                ],
                "abc": [
                    0.57187624,
                    0.63359075,
                    0.15537057
                ],
                "xyz": [
                    1.6003773776197043,
                    3.442579516903995,
                    1.9278891603534702
                ],
                "label": "O",
                "properties": {}
            },
            {
                "species": [
                    {
                        "element": "O",
                        "occu": 1
                    }
                ],
                "abc": [
                    0.06171451,
                    0.42812376,
                    0.15537057
                ],
                "xyz": [
                    -0.9558274176616844,
                    2.32618624384261,
                    1.9278891603534702
                ],
                "label": "O",
                "properties": {}
            },
            {
                "species": [
                    {
                        "element": "O",
                        "occu": 1
                    }
                ],
                "abc": [
                    0.36640925,
                    0.93828549,
                    0.15537057
                ],
                "xyz": [
                    -0.6445499599580193,
                    5.098121159253396,
                    1.9278891603534702
                ],
                "label": "O",
                "properties": {}
            }
        ]
    },
    "spacegroup": {
        "source": "spglib",
        "symbol": "P6_322",
        "number": 182,
        "point_group": "622",
        "crystal_system": "hexagonal",
        "hall": "P 6c 2c"
    },
    "dielectric": {
        "epsilon_ionic": [
            [
                20.67344432,
                -1e-08,
                -0.0
            ],
            [
                -1e-08,
                20.67297276,
                -0.0
            ],
            [
                -0.0,
                -0.0,
                23.94727566
            ]
        ],
        "epsilon_ionic_avg": 21.764564246666666,
        "epsilon_ionic_eig": [
            20.673444320000215,
            20.672972759999787,
            23.94727566
        ],
        "epsilon_electronic": [
            [
                4.84430668,
                0.0,
                0.0
            ],
            [
                0.0,
                4.84430599,
                0.0
            ],
            [
                0.0,
                0.0,
                5.15053836
            ]
        ],
        "epsilon_electronic_avg": 4.946383676666667,
        "epsilon_electronic_eig": [
            4.84430668,
            4.84430599,
            5.15053836
        ]
    },
    "phonon": {
        "lowest_freq": -0.026861949264125516,
        "frequency": [
            -0.026861949264125516,
            -0.014884192998493948,
            -0.014884191947606679,
            1.9411726305090844,
            1.9411727627075943,
            2.8726774233180135,
            2.872677601980698,
            3.115631504312935,
            3.1156317121874304,
            3.4818071618149586,
            3.4818072565761438,
            3.7483739804750416,
            4.067343161119826,
            4.071343147598109,
            4.584623847731847,
            4.632620319923079,
            4.632620354214706,
            4.739872205524925,
            5.006696827797947,
            5.006696925427239,
            5.052517462625532,
            5.05251763192736,
            5.3018917402603964,
            5.301891855502342,
            5.64438527393695,
            5.644385403836019,
            5.765750408445698,
            6.26935457074193,
            6.42266755347347,
            6.591354106382973,
            6.767270702241614,
            6.7672708105866795,
            6.804812579418091,
            7.074381520479295,
            7.125197943447987,
            7.125197960598398,
            7.384225334123824,
            7.391370561424165,
            7.643858018465009,
            7.643858242278807,
            8.347472303070685,
            8.34747255193657,
            9.387132208002607,
            9.387132455341323,
            9.516188569631323,
            9.51618876225056,
            9.856836868200809,
            10.199986688545287,
            10.21567469342717,
            10.215674944629507,
            10.319036384996336,
            10.319036420522927,
            10.355768210096675,
            10.48037496496145,
            10.871849822650503,
            12.038354534637843,
            12.03835457524142,
            12.06353267247852,
            12.063532692737937,
            12.187712653872532,
            12.442099163909475,
            12.477812338399985,
            12.477812573441312,
            12.610660468135043,
            12.610660787912277,
            12.934951240917579,
            13.02116464074724,
            14.000476343403218,
            15.171789202009599,
            15.171789346989279,
            15.206148023081946,
            15.206148111480449,
            15.695611139452646,
            15.73220138884837,
            16.06116647829271,
            16.30507419855973,
            16.305074273505763,
            17.246534558291362,
            17.246534558291362,
            18.68208147357673,
            18.682081800628254,
            18.73450466343132,
            18.734504924340413,
            18.777174521020005,
            18.78909666710137,
            19.56891195183272,
            19.56891245140087,
            19.94843756346575,
            19.948438176045375,
            24.48130878308677,
            25.140036021331433,
            25.140036215762446,
            25.23910446552497,
            25.239104610775847,
            25.81359663629226,
            26.110006359657213
        ]
    },
    "born_effective_charge": {
        "avg_abs_trace": 3.8850141666666667,
        "tensors": [
            [
                [
                    2.36913,
                    0.0,
                    -0.00029
                ],
                [
                    0.0,
                    2.36917,
                    -0.0
                ],
                [
                    0.0,
                    0.0,
                    2.81947
                ]
            ],
            [
                [
                    2.36913,
                    -0.0,
                    0.00029
                ],
                [
                    0.0,
                    2.36907,
                    -0.0
                ],
                [
                    0.0,
                    0.0,
                    2.81947
                ]
            ],
            [
                [
                    6.19509,
                    5e-05,
                    -0.00071
                ],
                [
                    0.0,
                    6.19499,
                    -0.0
                ],
                [
                    0.0,
                    0.0,
                    10.04018
                ]
            ],
            [
                [
                    6.19509,
                    -5e-05,
                    0.00071
                ],
                [
                    0.0,
                    6.19507,
                    -0.0
                ],
                [
                    0.0,
                    0.0,
                    10.04018
                ]
            ],
            [
                [
                    6.51211,
                    0.0,
                    0.0
                ],
                [
                    8e-05,
                    7.72592,
                    -1.50711
                ],
                [
                    1e-05,
                    -0.55348,
                    6.84596
                ]
            ],
            [
                [
                    7.42271,
                    -0.5256,
                    1.30523
                ],
                [
                    -0.52567,
                    6.81575,
                    -0.75374
                ],
                [
                    0.47933,
                    -0.27673,
                    6.84596
                ]
            ],
            [
                [
                    7.42271,
                    0.5256,
                    -1.30523
                ],
                [
                    0.52555,
                    6.81542,
                    -0.75358
                ],
                [
                    -0.47932,
                    -0.27675,
                    6.84596
                ]
            ],
            [
                [
                    7.42256,
                    0.52541,
                    1.30526
                ],
                [
                    0.52567,
                    6.81575,
                    0.75374
                ],
                [
                    0.47932,
                    0.27675,
                    6.84596
                ]
            ],
            [
                [
                    7.42256,
                    -0.52541,
                    -1.30526
                ],
                [
                    -0.52555,
                    6.81542,
                    0.75358
                ],
                [
                    -0.47933,
                    0.27673,
                    6.84596
                ]
            ],
            [
                [
                    6.51205,
                    0.0,
                    0.0
                ],
                [
                    -8e-05,
                    7.72592,
                    1.50711
                ],
                [
                    -1e-05,
                    0.55348,
                    6.84596
                ]
            ],
            [
                [
                    -3.31128,
                    -0.11878,
                    -4e-05
                ],
                [
                    0.11852,
                    -3.3113,
                    5e-05
                ],
                [
                    0.0,
                    0.0,
                    -1.47489
                ]
            ],
            [
                [
                    -3.31139,
                    -0.11826,
                    -1e-05
                ],
                [
                    0.11851,
                    -3.31149,
                    -2e-05
                ],
                [
                    0.0,
                    0.0,
                    -1.47489
                ]
            ],
            [
                [
                    -3.31128,
                    0.11878,
                    4e-05
                ],
                [
                    -0.11851,
                    -3.31149,
                    2e-05
                ],
                [
                    0.0,
                    0.0,
                    -1.47495
                ]
            ],
            [
                [
                    -3.31139,
                    0.11826,
                    1e-05
                ],
                [
                    -0.11852,
                    -3.3113,
                    -5e-05
                ],
                [
                    0.0,
                    0.0,
                    -1.47495
                ]
            ],
            [
                [
                    -2.21792,
                    0.0,
                    0.0
                ],
                [
                    -0.00057,
                    -5.32455,
                    -0.11951
                ],
                [
                    5e-05,
                    0.1199,
                    -0.99173
                ]
            ],
            [
                [
                    -4.54801,
                    1.34511,
                    0.10352
                ],
                [
                    1.34503,
                    -2.99482,
                    -0.05974
                ],
                [
                    -0.10381,
                    0.05999,
                    -0.99173
                ]
            ],
            [
                [
                    -4.54801,
                    -1.34511,
                    -0.10352
                ],
                [
                    -1.34531,
                    -2.99456,
                    -0.05977
                ],
                [
                    0.10386,
                    0.05991,
                    -0.99173
                ]
            ],
            [
                [
                    -4.54791,
                    -1.34524,
                    0.10337
                ],
                [
                    -1.34503,
                    -2.99482,
                    0.05974
                ],
                [
                    -0.10386,
                    -0.05991,
                    -0.99173
                ]
            ],
            [
                [
                    -4.54791,
                    1.34524,
                    -0.10337
                ],
                [
                    1.34531,
                    -2.99456,
                    0.05977
                ],
                [
                    0.10381,
                    -0.05999,
                    -0.99173
                ]
            ],
            [
                [
                    -2.21824,
                    0.0,
                    0.0
                ],
                [
                    0.00057,
                    -5.32455,
                    0.11951
                ],
                [
                    -5e-05,
                    -0.1199,
                    -0.99173
                ]
            ],
            [
                [
                    -2.00819,
                    0.81975,
                    -0.85528
                ],
                [
                    0.81346,
                    -1.98667,
                    1.48331
                ],
                [
                    -0.7805,
                    1.5058,
                    -4.57876
                ]
            ],
            [
                [
                    -2.69941,
                    -0.41446,
                    -1.71253
                ],
                [
                    -0.42087,
                    -1.29571,
                    0.00083
                ],
                [
                    -1.69431,
                    0.07697,
                    -4.57876
                ]
            ],
            [
                [
                    -1.28478,
                    -0.39567,
                    0.85682
                ],
                [
                    -0.40201,
                    -2.71001,
                    1.48244
                ],
                [
                    0.91381,
                    1.42883,
                    -4.57876
                ]
            ],
            [
                [
                    -1.28483,
                    -0.39576,
                    -0.85658
                ],
                [
                    -0.40211,
                    -2.70999,
                    -1.48248
                ],
                [
                    -0.91381,
                    -1.42883,
                    -4.57876
                ]
            ],
            [
                [
                    -2.69937,
                    -0.41454,
                    1.71255
                ],
                [
                    -0.42092,
                    -1.29555,
                    -0.00083
                ],
                [
                    1.69431,
                    -0.07697,
                    -4.57876
                ]
            ],
            [
                [
                    -2.00819,
                    -0.81975,
                    0.85528
                ],
                [
                    -0.81335,
                    -1.98661,
                    1.48334
                ],
                [
                    0.78042,
                    1.50578,
                    -4.57874
                ]
            ],
            [
                [
                    -1.28483,
                    0.39576,
                    0.85658
                ],
                [
                    0.40201,
                    -2.71001,
                    -1.48244
                ],
                [
                    0.91383,
                    -1.42876,
                    -4.57874
                ]
            ],
            [
                [
                    -2.0083,
                    0.81979,
                    0.85519
                ],
                [
                    0.81335,
                    -1.98661,
                    -1.48334
                ],
                [
                    0.7805,
                    -1.5058,
                    -4.57876
                ]
            ],
            [
                [
                    -2.69937,
                    0.41454,
                    -1.71255
                ],
                [
                    0.42087,
                    -1.29571,
                    -0.00083
                ],
                [
                    -1.69425,
                    -0.07702,
                    -4.57874
                ]
            ],
            [
                [
                    -2.69941,
                    0.41446,
                    1.71253
                ],
                [
                    0.42092,
                    -1.29555,
                    0.00083
                ],
                [
                    1.69425,
                    0.07702,
                    -4.57874
                ]
            ],
            [
                [
                    -2.0083,
                    -0.81979,
                    -0.85519
                ],
                [
                    -0.81346,
                    -1.98667,
                    -1.48331
                ],
                [
                    -0.78042,
                    -1.50578,
                    -4.57874
                ]
            ],
            [
                [
                    -1.28478,
                    0.39567,
                    -0.85682
                ],
                [
                    0.40211,
                    -2.70999,
                    1.48248
                ],
                [
                    -0.91383,
                    1.42876,
                    -4.57874
                ]
            ]
        ]
    },
    "band_gap": 3.9320000000000004,
    "is_direct": false,
    "formula": "SrTa4O11"
}