{
    "mp_id": "mp-561315",
    "nelements": 4,
    "nsites": 26,
    "elements": [
        "Al",
        "Cs",
        "Ge",
        "O"
    ],
    "structure": {
        "@module": "pymatgen.core.structure",
        "@class": "Structure",
        "charge": null,
        "lattice": {
            "matrix": [
                [
                    4.8253719,
                    -8.59528586,
                    0.00023426
                ],
                [
                    4.8253719,
                    8.59528586,
                    0.00023426
                ],
                [
                    -4.61068482,
                    0.0,
                    6.14556774
                ]
            ],
            "a": 9.857137162650387,
            "b": 9.857137162650387,
            "c": 7.682865178844878,
            "alpha": 107.08325527383566,
            "beta": 107.08325527383566,
            "gamma": 121.38051029697384,
            "volume": 509.7989531502303
        },
        "sites": [
            {
                "species": [
                    {
                        "element": "Cs",
                        "occu": 1
                    }
                ],
                "abc": [
                    0.01830098,
                    0.40979291,
                    0.23574473
                ],
                "xyz": [
                    0.9787675793616926,
                    3.36498505023311,
                    1.4488854928376818
                ],
                "label": "Cs",
                "properties": {}
            },
            {
                "species": [
                    {
                        "element": "Cs",
                        "occu": 1
                    }
                ],
                "abc": [
                    0.01168472,
                    0.98831528,
                    0.25
                ],
                "xyz": [
                    3.6727006950000005,
                    8.394418842811882,
                    1.536626195
                ],
                "label": "Cs",
                "properties": {}
            },
            {
                "species": [
                    {
                        "element": "Cs",
                        "occu": 1
                    }
                ],
                "abc": [
                    0.40979291,
                    0.01830098,
                    0.73574473
                ],
                "xyz": [
                    -1.3265748306383074,
                    -3.36498505023311,
                    4.521669362837681
                ],
                "label": "Cs",
                "properties": {}
            },
            {
                "species": [
                    {
                        "element": "Cs",
                        "occu": 1
                    }
                ],
                "abc": [
                    0.98831528,
                    0.01168472,
                    0.75
                ],
                "xyz": [
                    1.367358285,
                    -8.394418842811882,
                    4.609410065
                ],
                "label": "Cs",
                "properties": {}
            },
            {
                "species": [
                    {
                        "element": "Cs",
                        "occu": 1
                    }
                ],
                "abc": [
                    0.59020709,
                    0.98169902,
                    0.26425527
                ],
                "xyz": [
                    6.366633810638309,
                    3.364985050233109,
                    1.6243668971623182
                ],
                "label": "Cs",
                "properties": {}
            },
            {
                "species": [
                    {
                        "element": "Cs",
                        "occu": 1
                    }
                ],
                "abc": [
                    0.98169902,
                    0.59020709,
                    0.76425527
                ],
                "xyz": [
                    4.061291400638309,
                    -3.364985050233109,
                    4.697150767162319
                ],
                "label": "Cs",
                "properties": {}
            },
            {
                "species": [
                    {
                        "element": "Al",
                        "occu": 1
                    }
                ],
                "abc": [
                    0.44020918,
                    0.55979082,
                    0.25
                ],
                "xyz": [
                    3.6727006950000005,
                    1.0278383794076107,
                    1.536626195
                ],
                "label": "Al",
                "properties": {}
            },
            {
                "species": [
                    {
                        "element": "Al",
                        "occu": 1
                    }
                ],
                "abc": [
                    0.55979082,
                    0.44020918,
                    0.75
                ],
                "xyz": [
                    1.367358285,
                    -1.0278383794076107,
                    4.609410065
                ],
                "label": "Al",
                "properties": {}
            },
            {
                "species": [
                    {
                        "element": "Ge",
                        "occu": 1
                    }
                ],
                "abc": [
                    0.43495975,
                    0.23563003,
                    0.25958722
                ],
                "xyz": [
                    2.038970226119181,
                    -1.7132959237937593,
                    1.5954679373101455
                ],
                "label": "Ge",
                "properties": {}
            },
            {
                "species": [
                    {
                        "element": "Ge",
                        "occu": 1
                    }
                ],
                "abc": [
                    0.76436997,
                    0.56504025,
                    0.24041278
                ],
                "xyz": [
                    5.306431163880819,
                    -1.7132959237937584,
                    1.4777844526898545
                ],
                "label": "Ge",
                "properties": {}
            },
            {
                "species": [
                    {
                        "element": "Ge",
                        "occu": 1
                    }
                ],
                "abc": [
                    0.23563003,
                    0.43495975,
                    0.75958722
                ],
                "xyz": [
                    -0.2663721838808186,
                    1.7132959237937593,
                    4.6682518073101456
                ],
                "label": "Ge",
                "properties": {}
            },
            {
                "species": [
                    {
                        "element": "Ge",
                        "occu": 1
                    }
                ],
                "abc": [
                    0.56504025,
                    0.76436997,
                    0.74041278
                ],
                "xyz": [
                    3.001088753880819,
                    1.7132959237937584,
                    4.550568322689855
                ],
                "label": "Ge",
                "properties": {}
            },
            {
                "species": [
                    {
                        "element": "O",
                        "occu": 1
                    }
                ],
                "abc": [
                    0.33597053,
                    0.3438355,
                    0.23495326
                ],
                "xyz": [
                    2.197021485321044,
                    0.06760166543032442,
                    1.44408042642442
                ],
                "label": "O",
                "properties": {}
            },
            {
                "species": [
                    {
                        "element": "O",
                        "occu": 1
                    }
                ],
                "abc": [
                    0.3438355,
                    0.33597053,
                    0.73495326
                ],
                "xyz": [
                    -0.10832092467895649,
                    -0.06760166543032442,
                    4.51686429642442
                ],
                "label": "O",
                "properties": {}
            },
            {
                "species": [
                    {
                        "element": "O",
                        "occu": 1
                    }
                ],
                "abc": [
                    0.72735404,
                    0.47954622,
                    0.97531825
                ],
                "xyz": [
                    1.3268575507627292,
                    -2.129979051243426,
                    5.994167101888163
                ],
                "label": "O",
                "properties": {}
            },
            {
                "species": [
                    {
                        "element": "O",
                        "occu": 1
                    }
                ],
                "abc": [
                    0.6561645,
                    0.66402947,
                    0.26504674
                ],
                "xyz": [
                    5.148379904678957,
                    0.06760166543032398,
                    1.6291719635755797
                ],
                "label": "O",
                "properties": {}
            },
            {
                "species": [
                    {
                        "element": "O",
                        "occu": 1
                    }
                ],
                "abc": [
                    0.73102205,
                    0.00400397,
                    0.94750388
                ],
                "xyz": [
                    -0.8218678537302635,
                    -6.248928222988349,
                    5.823121465648276
                ],
                "label": "O",
                "properties": {}
            },
            {
                "species": [
                    {
                        "element": "O",
                        "occu": 1
                    }
                ],
                "abc": [
                    0.27264596,
                    0.52045378,
                    0.02468175
                ],
                "xyz": [
                    3.7132014292372713,
                    2.1299790512434256,
                    0.1518691581118374
                ],
                "label": "O",
                "properties": {}
            },
            {
                "species": [
                    {
                        "element": "O",
                        "occu": 1
                    }
                ],
                "abc": [
                    0.00400397,
                    0.73102205,
                    0.44750388
                ],
                "xyz": [
                    1.4834745562697362,
                    6.248928222988349,
                    2.750337595648276
                ],
                "label": "O",
                "properties": {}
            },
            {
                "species": [
                    {
                        "element": "O",
                        "occu": 1
                    }
                ],
                "abc": [
                    0.47954622,
                    0.72735404,
                    0.47531825
                ],
                "xyz": [
                    3.6321999607627293,
                    2.129979051243426,
                    2.921383231888162
                ],
                "label": "O",
                "properties": {}
            },
            {
                "species": [
                    {
                        "element": "O",
                        "occu": 1
                    }
                ],
                "abc": [
                    0.35259353,
                    0.64740647,
                    0.75
                ],
                "xyz": [
                    1.367358285,
                    2.534001494527028,
                    4.609410065
                ],
                "label": "O",
                "properties": {}
            },
            {
                "species": [
                    {
                        "element": "O",
                        "occu": 1
                    }
                ],
                "abc": [
                    0.66402947,
                    0.6561645,
                    0.76504674
                ],
                "xyz": [
                    2.8430374946789567,
                    -0.06760166543032398,
                    4.70195583357558
                ],
                "label": "O",
                "properties": {}
            },
            {
                "species": [
                    {
                        "element": "O",
                        "occu": 1
                    }
                ],
                "abc": [
                    0.99599603,
                    0.26897795,
                    0.55249612
                ],
                "xyz": [
                    3.5565844237302637,
                    -6.24892822298835,
                    3.3956986643517237
                ],
                "label": "O",
                "properties": {}
            },
            {
                "species": [
                    {
                        "element": "O",
                        "occu": 1
                    }
                ],
                "abc": [
                    0.64740647,
                    0.35259353,
                    0.25
                ],
                "xyz": [
                    3.6727006950000005,
                    -2.534001494527028,
                    1.536626195
                ],
                "label": "O",
                "properties": {}
            },
            {
                "species": [
                    {
                        "element": "O",
                        "occu": 1
                    }
                ],
                "abc": [
                    0.26897795,
                    0.99599603,
                    0.05249612
                ],
                "xyz": [
                    5.861926833730264,
                    6.24892822298835,
                    0.3229147943517236
                ],
                "label": "O",
                "properties": {}
            },
            {
                "species": [
                    {
                        "element": "O",
                        "occu": 1
                    }
                ],
                "abc": [
                    0.52045378,
                    0.27264596,
                    0.52468175
                ],
                "xyz": [
                    1.4078590192372715,
                    -2.1299790512434256,
                    3.224653028111837
                ],
                "label": "O",
                "properties": {}
            }
        ]
    },
    "spacegroup": {
        "source": "spglib",
        "symbol": "C2/c",
        "number": 15,
        "point_group": "2/m",
        "crystal_system": "monoclinic",
        "hall": "-C 2yc"
    },
    "dielectric": {
        "epsilon_ionic": [
            [
                5.05140899,
                -3e-08,
                -0.55726613
            ],
            [
                -3e-08,
                4.55528997,
                1e-08
            ],
            [
                -0.55726613,
                1e-08,
                5.67653094
            ]
        ],
        "epsilon_ionic_avg": 5.094409966666667,
        "epsilon_ionic_eig": [
            6.0029065054624535,
            4.7250334245375525,
            4.555289969999998
        ],
        "epsilon_electronic": [
            [
                2.94657155,
                0.0,
                0.03715276
            ],
            [
                0.0,
                2.87421874,
                0.0
            ],
            [
                0.03715254,
                0.0,
                2.95035994
            ]
        ],
        "epsilon_electronic_avg": 2.9237167433333333,
        "epsilon_electronic_eig": [
            2.911264839410103,
            2.9856666505898968,
            2.87421874
        ]
    },
    "phonon": {
        "lowest_freq": -0.08004975890859888,
        "frequency": [
            -0.08004975890859888,
            -0.06868332630445484,
            -0.04052480725315522,
            0.9253759788540349,
            1.2453444795735995,
            1.3035370800560182,
            1.3391287023848204,
            1.4158764930001657,
            1.510422460822884,
            1.5927323163329676,
            1.6668208997228078,
            1.7956910320706936,
            1.8454424629641497,
            1.9482292959291068,
            1.9764711795722674,
            1.9908448468688433,
            2.090893992870669,
            2.243467705386884,
            2.3033991619707703,
            2.386111124961421,
            2.4990942859177783,
            2.5937374220104434,
            2.8129888026846377,
            2.813337037498837,
            3.0700447764476353,
            3.1599217637671515,
            3.764921959844478,
            3.9100445412881815,
            4.14220434436415,
            4.621148978819191,
            5.218441074702853,
            5.229347113647923,
            5.394307587911019,
            5.43851769699502,
            5.560321182965403,
            5.762857468075827,
            5.954248736395075,
            6.266443245642424,
            6.455902753527538,
            7.026246841032596,
            7.345452803606481,
            7.463326078382454,
            7.732071310238845,
            7.969592435432288,
            8.077551489981055,
            8.353755982943554,
            8.528465403026146,
            8.76965425287208,
            8.93765916473895,
            9.11078474752221,
            9.127922779239922,
            10.021732216087438,
            10.740199523317823,
            11.745420376281677,
            14.006132626966588,
            14.032614451193961,
            14.718505914804252,
            14.798432657614624,
            16.105147207777083,
            16.36956886279339,
            17.038629418509856,
            17.478108054433505,
            17.86485371875882,
            18.573642609809063,
            21.812478720658806,
            21.84203218102545,
            23.25585482461008,
            23.38278739275384,
            23.623235338295874,
            23.750419001366375,
            23.846453511548287,
            23.99063140051213,
            24.038179877421435,
            25.23996646632244,
            25.264226125886488,
            25.44295295340736,
            25.576913270458252,
            25.705627504693204
        ]
    },
    "born_effective_charge": {
        "avg_abs_trace": 1.915957948717949,
        "tensors": [
            [
                [
                    1.35505,
                    -0.00792,
                    0.12422
                ],
                [
                    0.01925,
                    1.3961,
                    0.04298
                ],
                [
                    0.10177,
                    0.04507,
                    1.33864
                ]
            ],
            [
                [
                    1.31117,
                    -2e-05,
                    0.10167
                ],
                [
                    -0.0,
                    1.16455,
                    -0.0
                ],
                [
                    0.07963,
                    0.0,
                    1.40387
                ]
            ],
            [
                [
                    1.35505,
                    0.00792,
                    0.12422
                ],
                [
                    -0.0193,
                    1.39617,
                    -0.04299
                ],
                [
                    0.10177,
                    -0.04507,
                    1.33864
                ]
            ],
            [
                [
                    1.31117,
                    2e-05,
                    0.10167
                ],
                [
                    -0.0,
                    1.16452,
                    -0.0
                ],
                [
                    0.07963,
                    -0.0,
                    1.40387
                ]
            ],
            [
                [
                    1.35504,
                    0.00797,
                    0.12417
                ],
                [
                    -0.01925,
                    1.3961,
                    -0.04298
                ],
                [
                    0.10174,
                    -0.04509,
                    1.33863
                ]
            ],
            [
                [
                    1.35504,
                    -0.00797,
                    0.12417
                ],
                [
                    0.0193,
                    1.39617,
                    0.04299
                ],
                [
                    0.10174,
                    0.04509,
                    1.33863
                ]
            ],
            [
                [
                    2.38919,
                    1e-05,
                    -0.37864
                ],
                [
                    -0.0,
                    2.43147,
                    -0.0
                ],
                [
                    -0.09369,
                    -3e-05,
                    2.84721
                ]
            ],
            [
                [
                    2.38919,
                    -1e-05,
                    -0.37864
                ],
                [
                    -0.0,
                    2.4314,
                    -0.0
                ],
                [
                    -0.09369,
                    3e-05,
                    2.84721
                ]
            ],
            [
                [
                    3.12328,
                    -0.15956,
                    -0.02262
                ],
                [
                    0.0766,
                    2.67296,
                    0.23081
                ],
                [
                    0.00973,
                    0.04401,
                    3.02076
                ]
            ],
            [
                [
                    3.12336,
                    0.15965,
                    -0.02272
                ],
                [
                    -0.0766,
                    2.67296,
                    -0.23081
                ],
                [
                    0.00977,
                    -0.04399,
                    3.02073
                ]
            ],
            [
                [
                    3.12328,
                    0.15956,
                    -0.02262
                ],
                [
                    -0.07687,
                    2.67304,
                    -0.23079
                ],
                [
                    0.00973,
                    -0.04401,
                    3.02076
                ]
            ],
            [
                [
                    3.12336,
                    -0.15965,
                    -0.02272
                ],
                [
                    0.07687,
                    2.67304,
                    0.23079
                ],
                [
                    0.00977,
                    0.04399,
                    3.02073
                ]
            ],
            [
                [
                    -1.68495,
                    -0.32186,
                    -0.04446
                ],
                [
                    -0.42973,
                    -2.14864,
                    -0.00807
                ],
                [
                    -0.04904,
                    0.06817,
                    -1.38662
                ]
            ],
            [
                [
                    -1.68495,
                    0.32186,
                    -0.04446
                ],
                [
                    0.42994,
                    -2.14839,
                    0.00805
                ],
                [
                    -0.04904,
                    -0.06817,
                    -1.38662
                ]
            ],
            [
                [
                    -1.47579,
                    -0.04573,
                    0.48225
                ],
                [
                    0.01518,
                    -1.41765,
                    0.20798
                ],
                [
                    0.30402,
                    0.20888,
                    -2.6114
                ]
            ],
            [
                [
                    -1.68465,
                    0.32222,
                    -0.04408
                ],
                [
                    0.42973,
                    -2.14864,
                    0.00807
                ],
                [
                    -0.04912,
                    -0.06843,
                    -1.38658
                ]
            ],
            [
                [
                    -1.70617,
                    -0.0324,
                    -0.38905
                ],
                [
                    -0.07092,
                    -1.6169,
                    -0.2166
                ],
                [
                    -0.36371,
                    -0.2077,
                    -1.87242
                ]
            ],
            [
                [
                    -1.47563,
                    -0.04573,
                    0.48232
                ],
                [
                    0.01501,
                    -1.41747,
                    0.20803
                ],
                [
                    0.30406,
                    0.20917,
                    -2.61122
                ]
            ],
            [
                [
                    -1.70617,
                    0.0324,
                    -0.38905
                ],
                [
                    0.07101,
                    -1.61719,
                    0.21706
                ],
                [
                    -0.36371,
                    0.2077,
                    -1.87242
                ]
            ],
            [
                [
                    -1.47579,
                    0.04573,
                    0.48225
                ],
                [
                    -0.01501,
                    -1.41747,
                    -0.20803
                ],
                [
                    0.30402,
                    -0.20888,
                    -2.6114
                ]
            ],
            [
                [
                    -2.92393,
                    -0.0001,
                    -0.02415
                ],
                [
                    0.0,
                    -1.36809,
                    -0.0
                ],
                [
                    0.00849,
                    7e-05,
                    -1.22929
                ]
            ],
            [
                [
                    -1.68465,
                    -0.32222,
                    -0.04408
                ],
                [
                    -0.42994,
                    -2.14839,
                    -0.00805
                ],
                [
                    -0.04912,
                    0.06843,
                    -1.38658
                ]
            ],
            [
                [
                    -1.70599,
                    0.03211,
                    -0.38892
                ],
                [
                    0.07092,
                    -1.6169,
                    0.2166
                ],
                [
                    -0.36364,
                    0.2077,
                    -1.87231
                ]
            ],
            [
                [
                    -2.92393,
                    0.0001,
                    -0.02415
                ],
                [
                    -0.0,
                    -1.36791,
                    -0.0
                ],
                [
                    0.00849,
                    -7e-05,
                    -1.22929
                ]
            ],
            [
                [
                    -1.70599,
                    -0.03211,
                    -0.38892
                ],
                [
                    -0.07101,
                    -1.61719,
                    -0.21706
                ],
                [
                    -0.36364,
                    -0.2077,
                    -1.87231
                ]
            ],
            [
                [
                    -1.47563,
                    0.04573,
                    0.48232
                ],
                [
                    -0.01518,
                    -1.41765,
                    -0.20798
                ],
                [
                    0.30406,
                    -0.20917,
                    -2.61122
                ]
            ]
        ]
    },
    "band_gap": 3.4093000000000004,
    "is_direct": false,
    "formula": "Cs3AlGe2O7"
}