{
    "mp_id": "mp-557401",
    "nelements": 3,
    "nsites": 24,
    "elements": [
        "Na",
        "O",
        "Pb"
    ],
    "structure": {
        "@module": "pymatgen.core.structure",
        "@class": "Structure",
        "charge": null,
        "lattice": {
            "matrix": [
                [
                    5.30759988,
                    -2.82718031,
                    0.0
                ],
                [
                    5.30759988,
                    2.82718031,
                    0.0
                ],
                [
                    0.0,
                    0.0,
                    10.87145936
                ]
            ],
            "a": 6.013614968671315,
            "b": 6.013614968671315,
            "c": 10.87145936,
            "alpha": 90.0,
            "beta": 90.0,
            "gamma": 56.08546020019599,
            "volume": 326.26427731799015
        },
        "sites": [
            {
                "species": [
                    {
                        "element": "Na",
                        "occu": 1
                    }
                ],
                "abc": [
                    0.67557281,
                    0.32442719,
                    0.44035538
                ],
                "xyz": [
                    5.30759988,
                    -0.9927519828067424,
                    4.787305617627356
                ],
                "label": "Na",
                "properties": {}
            },
            {
                "species": [
                    {
                        "element": "Na",
                        "occu": 1
                    }
                ],
                "abc": [
                    0.67557281,
                    0.32442719,
                    0.05964462
                ],
                "xyz": [
                    5.30759988,
                    -0.9927519828067424,
                    0.6484240623726432
                ],
                "label": "Na",
                "properties": {}
            },
            {
                "species": [
                    {
                        "element": "Na",
                        "occu": 1
                    }
                ],
                "abc": [
                    0.32442719,
                    0.67557281,
                    0.94035538
                ],
                "xyz": [
                    5.30759988,
                    0.9927519828067424,
                    10.223035297627355
                ],
                "label": "Na",
                "properties": {}
            },
            {
                "species": [
                    {
                        "element": "Na",
                        "occu": 1
                    }
                ],
                "abc": [
                    0.16829439,
                    0.4278706,
                    0.75
                ],
                "xyz": [
                    3.164205229384201,
                    0.7338687498564251,
                    8.153594519999999
                ],
                "label": "Na",
                "properties": {}
            },
            {
                "species": [
                    {
                        "element": "Na",
                        "occu": 1
                    }
                ],
                "abc": [
                    0.78099779,
                    0.78099779,
                    0.5
                ],
                "xyz": [
                    8.29044755296853,
                    0.0,
                    5.43572968
                ],
                "label": "Na",
                "properties": {}
            },
            {
                "species": [
                    {
                        "element": "Na",
                        "occu": 1
                    }
                ],
                "abc": [
                    0.5721294,
                    0.83170561,
                    0.75
                ],
                "xyz": [
                    7.450994530615798,
                    0.7338687498564251,
                    8.153594519999999
                ],
                "label": "Na",
                "properties": {}
            },
            {
                "species": [
                    {
                        "element": "Na",
                        "occu": 1
                    }
                ],
                "abc": [
                    0.21900221,
                    0.21900221,
                    0.0
                ],
                "xyz": [
                    2.3247522070314695,
                    0.0,
                    0.0
                ],
                "label": "Na",
                "properties": {}
            },
            {
                "species": [
                    {
                        "element": "Na",
                        "occu": 1
                    }
                ],
                "abc": [
                    0.32442719,
                    0.67557281,
                    0.55964462
                ],
                "xyz": [
                    5.30759988,
                    0.9927519828067424,
                    6.084153742372643
                ],
                "label": "Na",
                "properties": {}
            },
            {
                "species": [
                    {
                        "element": "Na",
                        "occu": 1
                    }
                ],
                "abc": [
                    0.4278706,
                    0.16829439,
                    0.25
                ],
                "xyz": [
                    3.164205229384201,
                    -0.7338687498564251,
                    2.71786484
                ],
                "label": "Na",
                "properties": {}
            },
            {
                "species": [
                    {
                        "element": "Na",
                        "occu": 1
                    }
                ],
                "abc": [
                    0.21900221,
                    0.21900221,
                    0.5
                ],
                "xyz": [
                    2.3247522070314695,
                    0.0,
                    5.43572968
                ],
                "label": "Na",
                "properties": {}
            },
            {
                "species": [
                    {
                        "element": "Na",
                        "occu": 1
                    }
                ],
                "abc": [
                    0.78099779,
                    0.78099779,
                    0.0
                ],
                "xyz": [
                    8.29044755296853,
                    0.0,
                    0.0
                ],
                "label": "Na",
                "properties": {}
            },
            {
                "species": [
                    {
                        "element": "Na",
                        "occu": 1
                    }
                ],
                "abc": [
                    0.83170561,
                    0.5721294,
                    0.25
                ],
                "xyz": [
                    7.450994530615798,
                    -0.7338687498564251,
                    2.71786484
                ],
                "label": "Na",
                "properties": {}
            },
            {
                "species": [
                    {
                        "element": "Pb",
                        "occu": 1
                    }
                ],
                "abc": [
                    0.79492625,
                    0.20507375,
                    0.75
                ],
                "xyz": [
                    5.30759988,
                    -1.6676193738042748,
                    8.153594519999999
                ],
                "label": "Pb",
                "properties": {}
            },
            {
                "species": [
                    {
                        "element": "Pb",
                        "occu": 1
                    }
                ],
                "abc": [
                    0.20507375,
                    0.79492625,
                    0.25
                ],
                "xyz": [
                    5.30759988,
                    1.6676193738042748,
                    2.71786484
                ],
                "label": "Pb",
                "properties": {}
            },
            {
                "species": [
                    {
                        "element": "O",
                        "occu": 1
                    }
                ],
                "abc": [
                    0.82582249,
                    0.17417751,
                    0.25
                ],
                "xyz": [
                    5.30759988,
                    -1.8423178565663436,
                    2.71786484
                ],
                "label": "O",
                "properties": {}
            },
            {
                "species": [
                    {
                        "element": "O",
                        "occu": 1
                    }
                ],
                "abc": [
                    0.83521104,
                    0.44600084,
                    0.61268592
                ],
                "xyz": [
                    6.800160020542574,
                    -1.1003674138911623,
                    6.660790079724211
                ],
                "label": "O",
                "properties": {}
            },
            {
                "species": [
                    {
                        "element": "O",
                        "occu": 1
                    }
                ],
                "abc": [
                    0.55399916,
                    0.16478896,
                    0.88731408
                ],
                "xyz": [
                    3.815039739457426,
                    -1.100367413891162,
                    9.64639896027579
                ],
                "label": "O",
                "properties": {}
            },
            {
                "species": [
                    {
                        "element": "O",
                        "occu": 1
                    }
                ],
                "abc": [
                    0.83521104,
                    0.44600084,
                    0.88731408
                ],
                "xyz": [
                    6.800160020542574,
                    -1.1003674138911623,
                    9.64639896027579
                ],
                "label": "O",
                "properties": {}
            },
            {
                "species": [
                    {
                        "element": "O",
                        "occu": 1
                    }
                ],
                "abc": [
                    0.16478896,
                    0.55399916,
                    0.11268592
                ],
                "xyz": [
                    3.815039739457426,
                    1.100367413891162,
                    1.225060399724211
                ],
                "label": "O",
                "properties": {}
            },
            {
                "species": [
                    {
                        "element": "O",
                        "occu": 1
                    }
                ],
                "abc": [
                    0.16478896,
                    0.55399916,
                    0.38731408
                ],
                "xyz": [
                    3.815039739457426,
                    1.100367413891162,
                    4.210669280275789
                ],
                "label": "O",
                "properties": {}
            },
            {
                "species": [
                    {
                        "element": "O",
                        "occu": 1
                    }
                ],
                "abc": [
                    0.55399916,
                    0.16478896,
                    0.61268592
                ],
                "xyz": [
                    3.815039739457426,
                    -1.100367413891162,
                    6.660790079724211
                ],
                "label": "O",
                "properties": {}
            },
            {
                "species": [
                    {
                        "element": "O",
                        "occu": 1
                    }
                ],
                "abc": [
                    0.44600084,
                    0.83521104,
                    0.38731408
                ],
                "xyz": [
                    6.800160020542574,
                    1.1003674138911623,
                    4.210669280275789
                ],
                "label": "O",
                "properties": {}
            },
            {
                "species": [
                    {
                        "element": "O",
                        "occu": 1
                    }
                ],
                "abc": [
                    0.17417751,
                    0.82582249,
                    0.75
                ],
                "xyz": [
                    5.30759988,
                    1.8423178565663436,
                    8.153594519999999
                ],
                "label": "O",
                "properties": {}
            },
            {
                "species": [
                    {
                        "element": "O",
                        "occu": 1
                    }
                ],
                "abc": [
                    0.44600084,
                    0.83521104,
                    0.11268592
                ],
                "xyz": [
                    6.800160020542574,
                    1.1003674138911623,
                    1.225060399724211
                ],
                "label": "O",
                "properties": {}
            }
        ]
    },
    "spacegroup": {
        "source": "spglib",
        "symbol": "Cmcm",
        "number": 63,
        "point_group": "mmm",
        "crystal_system": "orthorhombic",
        "hall": "-C 2c 2"
    },
    "dielectric": {
        "epsilon_ionic": [
            [
                5.28554734,
                -0.0,
                0.0
            ],
            [
                -0.0,
                6.39789909,
                0.0
            ],
            [
                0.0,
                0.0,
                4.20648179
            ]
        ],
        "epsilon_ionic_avg": 5.29664274,
        "epsilon_ionic_eig": [
            5.28554734,
            6.39789909,
            4.20648179
        ],
        "epsilon_electronic": [
            [
                3.6539754,
                0.0,
                0.0
            ],
            [
                0.0,
                3.50942919,
                0.0
            ],
            [
                0.0,
                0.0,
                3.64699361
            ]
        ],
        "epsilon_electronic_avg": 3.6034660666666674,
        "epsilon_electronic_eig": [
            3.6539754,
            3.50942919,
            3.64699361
        ]
    },
    "phonon": {
        "lowest_freq": -0.09858408063220955,
        "frequency": [
            -0.09858408063220955,
            -0.05548619988955305,
            -0.010448622889933529,
            1.9537767819370953,
            1.9975347556055418,
            2.134260736553293,
            2.9402702037951167,
            3.187431892001336,
            3.388438930322803,
            3.406364036280078,
            3.433895886862587,
            3.500679993442511,
            3.568980160418408,
            3.8946169852490216,
            4.065121693316627,
            4.31644386357611,
            4.431372115585647,
            4.435807115186262,
            4.631941900104575,
            4.702716658813852,
            4.963274792260293,
            5.113545977514931,
            5.187840215244491,
            5.337970330253204,
            5.627158226407076,
            5.628370832697518,
            5.908078763248869,
            5.918702543861825,
            5.957470761850256,
            6.168360633897146,
            6.209176921515438,
            6.232772257522707,
            6.352269638706914,
            6.824075875207056,
            6.936236946883533,
            6.954651450968785,
            7.060671511257963,
            7.263492665167994,
            7.302534849650163,
            7.478860896519306,
            7.738566256474843,
            7.832814146921839,
            7.863256680508731,
            7.877529463250262,
            8.24572450487269,
            8.292009901144137,
            8.401084493479486,
            8.423060196590974,
            8.599963777432858,
            8.633548233466245,
            8.819744680743144,
            9.08583374714382,
            9.141085089871593,
            9.231436582466968,
            9.332401403903958,
            9.457708300646022,
            9.51638566843521,
            9.730133544602575,
            10.648965643917057,
            10.842031425360053,
            11.13969674397918,
            11.771460455239762,
            13.569504063260641,
            13.578564814144418,
            14.439603462086458,
            14.727035102721075,
            14.766053181428948,
            14.77120646477596,
            14.774183408525015,
            16.503281687390945,
            16.52067612521557,
            16.59875901894147
        ]
    },
    "born_effective_charge": {
        "avg_abs_trace": 1.5043363888888888,
        "tensors": [
            [
                [
                    0.82325,
                    1e-05,
                    0.0
                ],
                [
                    -0.0,
                    1.04912,
                    0.07374
                ],
                [
                    0.0,
                    -0.0892,
                    1.07404
                ]
            ],
            [
                [
                    0.82325,
                    1e-05,
                    -0.0
                ],
                [
                    -0.0,
                    1.04912,
                    -0.07374
                ],
                [
                    0.0,
                    0.08914,
                    1.07412
                ]
            ],
            [
                [
                    0.82325,
                    -1e-05,
                    0.0
                ],
                [
                    -0.0,
                    1.04906,
                    -0.07376
                ],
                [
                    0.0,
                    0.0892,
                    1.07404
                ]
            ],
            [
                [
                    1.10454,
                    -0.17621,
                    0.0
                ],
                [
                    0.04602,
                    1.01434,
                    0.0
                ],
                [
                    2e-05,
                    -0.0,
                    0.77155
                ]
            ],
            [
                [
                    1.05201,
                    -0.0,
                    0.0
                ],
                [
                    2e-05,
                    0.86795,
                    -0.00191
                ],
                [
                    2e-05,
                    0.00085,
                    1.0815
                ]
            ],
            [
                [
                    1.10454,
                    0.1762,
                    -0.0
                ],
                [
                    -0.04602,
                    1.01434,
                    0.0
                ],
                [
                    -2e-05,
                    -0.0,
                    0.77155
                ]
            ],
            [
                [
                    1.05198,
                    -0.0,
                    0.0
                ],
                [
                    -2e-05,
                    0.86795,
                    0.00191
                ],
                [
                    -2e-05,
                    -0.00085,
                    1.0815
                ]
            ],
            [
                [
                    0.82325,
                    -1e-05,
                    -0.0
                ],
                [
                    -0.0,
                    1.04906,
                    0.07376
                ],
                [
                    0.0,
                    -0.08914,
                    1.07412
                ]
            ],
            [
                [
                    1.10454,
                    0.17621,
                    0.0
                ],
                [
                    -0.04599,
                    1.01436,
                    0.0
                ],
                [
                    2e-05,
                    0.0,
                    0.77155
                ]
            ],
            [
                [
                    1.05198,
                    -0.0,
                    0.0
                ],
                [
                    -2e-05,
                    0.86795,
                    -0.00191
                ],
                [
                    -2e-05,
                    0.00085,
                    1.0815
                ]
            ],
            [
                [
                    1.05201,
                    -0.0,
                    0.0
                ],
                [
                    2e-05,
                    0.86795,
                    0.00191
                ],
                [
                    2e-05,
                    -0.00085,
                    1.0815
                ]
            ],
            [
                [
                    1.10454,
                    -0.1762,
                    0.0
                ],
                [
                    0.04599,
                    1.01436,
                    0.0
                ],
                [
                    -2e-05,
                    0.0,
                    0.77155
                ]
            ],
            [
                [
                    3.23127,
                    7e-05,
                    0.0
                ],
                [
                    -0.0,
                    2.99291,
                    0.0
                ],
                [
                    0.0,
                    -0.00012,
                    3.17738
                ]
            ],
            [
                [
                    3.23127,
                    -7e-05,
                    0.0
                ],
                [
                    -0.0,
                    2.99268,
                    0.0
                ],
                [
                    0.0,
                    0.00012,
                    3.17738
                ]
            ],
            [
                [
                    -1.5414,
                    0.00015,
                    0.0
                ],
                [
                    -0.0,
                    -2.61735,
                    0.0
                ],
                [
                    0.0,
                    0.0001,
                    -1.38454
                ]
            ],
            [
                [
                    -1.91242,
                    -0.09637,
                    0.40353
                ],
                [
                    -0.15888,
                    -1.55962,
                    0.12388
                ],
                [
                    0.41992,
                    0.18382,
                    -1.91183
                ]
            ],
            [
                [
                    -1.9123,
                    0.09636,
                    0.40343
                ],
                [
                    0.15888,
                    -1.55962,
                    -0.12388
                ],
                [
                    0.41985,
                    -0.1837,
                    -1.91172
                ]
            ],
            [
                [
                    -1.91242,
                    -0.09637,
                    -0.40353
                ],
                [
                    -0.15888,
                    -1.55962,
                    -0.12388
                ],
                [
                    -0.41985,
                    -0.1837,
                    -1.91172
                ]
            ],
            [
                [
                    -1.9123,
                    -0.09636,
                    -0.40343
                ],
                [
                    -0.1588,
                    -1.55953,
                    -0.1243
                ],
                [
                    -0.41992,
                    -0.18382,
                    -1.91183
                ]
            ],
            [
                [
                    -1.9123,
                    -0.09636,
                    0.40343
                ],
                [
                    -0.1588,
                    -1.55953,
                    0.1243
                ],
                [
                    0.41985,
                    0.1837,
                    -1.91172
                ]
            ],
            [
                [
                    -1.9123,
                    0.09636,
                    -0.40343
                ],
                [
                    0.15888,
                    -1.55962,
                    0.12388
                ],
                [
                    -0.41992,
                    0.18382,
                    -1.91183
                ]
            ],
            [
                [
                    -1.91242,
                    0.09637,
                    -0.40353
                ],
                [
                    0.1588,
                    -1.55953,
                    0.1243
                ],
                [
                    -0.41985,
                    0.1837,
                    -1.91172
                ]
            ],
            [
                [
                    -1.5414,
                    -0.00015,
                    0.0
                ],
                [
                    -0.0,
                    -2.6172,
                    0.0
                ],
                [
                    0.0,
                    -0.0001,
                    -1.38454
                ]
            ],
            [
                [
                    -1.91242,
                    0.09637,
                    0.40353
                ],
                [
                    0.1588,
                    -1.55953,
                    -0.1243
                ],
                [
                    0.41992,
                    -0.18382,
                    -1.91183
                ]
            ]
        ]
    },
    "band_gap": 1.1037000000000001,
    "is_direct": true,
    "formula": "Na6PbO5"
}