{
    "mp_id": "mp-555678",
    "nelements": 3,
    "nsites": 21,
    "elements": [
        "Na",
        "O",
        "Ti"
    ],
    "structure": {
        "@module": "pymatgen.core.structure",
        "@class": "Structure",
        "charge": null,
        "lattice": {
            "matrix": [
                [
                    5.33996687,
                    8e-08,
                    0.0
                ],
                [
                    -2.669984,
                    4.62454715,
                    0.0
                ],
                [
                    0.0,
                    0.0,
                    9.64062609
                ]
            ],
            "a": 5.3399668700000005,
            "b": 5.339967312898939,
            "c": 9.64062609,
            "alpha": 90.0,
            "beta": 90.0,
            "gamma": 120.00000339804663,
            "volume": 238.07457471947177
        },
        "sites": [
            {
                "species": [
                    {
                        "element": "Na",
                        "occu": 1
                    }
                ],
                "abc": [
                    0.666667,
                    0.333333,
                    0.91006855
                ],
                "xyz": [
                    2.6699859166502895,
                    1.5415142284843097,
                    8.773630606818468
                ],
                "label": "Na",
                "properties": {}
            },
            {
                "species": [
                    {
                        "element": "Na",
                        "occu": 1
                    }
                ],
                "abc": [
                    0.333333,
                    0.666667,
                    0.08993145
                ],
                "xyz": [
                    -3.0466502902726234e-06,
                    3.0830330015156897,
                    0.8669954831815304
                ],
                "label": "Na",
                "properties": {}
            },
            {
                "species": [
                    {
                        "element": "Na",
                        "occu": 1
                    }
                ],
                "abc": [
                    0.0,
                    0.0,
                    0.30609393
                ],
                "xyz": [
                    0.0,
                    0.0,
                    2.9509371275486336
                ],
                "label": "Na",
                "properties": {}
            },
            {
                "species": [
                    {
                        "element": "Na",
                        "occu": 1
                    }
                ],
                "abc": [
                    0.0,
                    0.0,
                    0.69390607
                ],
                "xyz": [
                    0.0,
                    0.0,
                    6.689688962451366
                ],
                "label": "Na",
                "properties": {}
            },
            {
                "species": [
                    {
                        "element": "Ti",
                        "occu": 1
                    }
                ],
                "abc": [
                    0.333333,
                    0.666667,
                    0.47527887
                ],
                "xyz": [
                    -3.0466502902726234e-06,
                    3.0830330015156897,
                    4.581985874147718
                ],
                "label": "Ti",
                "properties": {}
            },
            {
                "species": [
                    {
                        "element": "Ti",
                        "occu": 1
                    }
                ],
                "abc": [
                    0.0,
                    0.0,
                    0.0
                ],
                "xyz": [
                    0.0,
                    0.0,
                    0.0
                ],
                "label": "Ti",
                "properties": {}
            },
            {
                "species": [
                    {
                        "element": "Ti",
                        "occu": 1
                    }
                ],
                "abc": [
                    0.333333,
                    0.666667,
                    0.77879858
                ],
                "xyz": [
                    -3.0466502902726234e-06,
                    3.0830330015156897,
                    7.508105909202952
                ],
                "label": "Ti",
                "properties": {}
            },
            {
                "species": [
                    {
                        "element": "Ti",
                        "occu": 1
                    }
                ],
                "abc": [
                    0.666667,
                    0.333333,
                    0.52472113
                ],
                "xyz": [
                    2.6699859166502895,
                    1.5415142284843097,
                    5.058640215852281
                ],
                "label": "Ti",
                "properties": {}
            },
            {
                "species": [
                    {
                        "element": "Ti",
                        "occu": 1
                    }
                ],
                "abc": [
                    0.666667,
                    0.333333,
                    0.22120142
                ],
                "xyz": [
                    2.6699859166502895,
                    1.5415142284843097,
                    2.132520180797048
                ],
                "label": "Ti",
                "properties": {}
            },
            {
                "species": [
                    {
                        "element": "O",
                        "occu": 1
                    }
                ],
                "abc": [
                    0.42072847,
                    0.02069396,
                    0.37869206
                ],
                "xyz": [
                    2.191423548969149,
                    0.0957002273984916,
                    3.650828553711845
                ],
                "label": "O",
                "properties": {}
            },
            {
                "species": [
                    {
                        "element": "O",
                        "occu": 1
                    }
                ],
                "abc": [
                    0.59996649,
                    0.57927153,
                    0.37869206
                ],
                "xyz": [
                    1.6571554629546663,
                    2.678868551134958,
                    3.650828553711845
                ],
                "label": "O",
                "properties": {}
            },
            {
                "species": [
                    {
                        "element": "O",
                        "occu": 1
                    }
                ],
                "abc": [
                    0.97930604,
                    0.40003351,
                    0.37869206
                ],
                "xyz": [
                    4.161378738027055,
                    1.8499739069194794,
                    3.650828553711845
                ],
                "label": "O",
                "properties": {}
            },
            {
                "species": [
                    {
                        "element": "O",
                        "occu": 1
                    }
                ],
                "abc": [
                    0.75466116,
                    0.0859176,
                    0.12162006
                ],
                "xyz": [
                    3.8004669751573688,
                    0.39733005258773274,
                    1.1724935235033653
                ],
                "label": "O",
                "properties": {}
            },
            {
                "species": [
                    {
                        "element": "O",
                        "occu": 1
                    }
                ],
                "abc": [
                    0.9140824,
                    0.66874356,
                    0.12162006
                ],
                "xyz": [
                    3.0956351271470472,
                    3.092636197605446,
                    1.1724935235033653
                ],
                "label": "O",
                "properties": {}
            },
            {
                "species": [
                    {
                        "element": "O",
                        "occu": 1
                    }
                ],
                "abc": [
                    0.02069396,
                    0.59996649,
                    0.62130794
                ],
                "xyz": [
                    -1.491395868027055,
                    2.77457332308052,
                    5.989797536288155
                ],
                "label": "O",
                "properties": {}
            },
            {
                "species": [
                    {
                        "element": "O",
                        "occu": 1
                    }
                ],
                "abc": [
                    0.66874356,
                    0.75466116,
                    0.87837994
                ],
                "xyz": [
                    1.5561352323044169,
                    3.489966170193179,
                    8.468132566496633
                ],
                "label": "O",
                "properties": {}
            },
            {
                "species": [
                    {
                        "element": "O",
                        "occu": 1
                    }
                ],
                "abc": [
                    0.0859176,
                    0.33125644,
                    0.87837994
                ],
                "xyz": [
                    -0.42565225714704796,
                    1.531911032394554,
                    8.468132566496633
                ],
                "label": "O",
                "properties": {}
            },
            {
                "species": [
                    {
                        "element": "O",
                        "occu": 1
                    }
                ],
                "abc": [
                    0.57927153,
                    0.97930604,
                    0.62130794
                ],
                "xyz": [
                    0.4785593210308505,
                    4.528847002601508,
                    5.989797536288155
                ],
                "label": "O",
                "properties": {}
            },
            {
                "species": [
                    {
                        "element": "O",
                        "occu": 1
                    }
                ],
                "abc": [
                    0.33125644,
                    0.24533884,
                    0.12162006
                ],
                "xyz": [
                    1.1138476376955828,
                    1.1345810598068211,
                    1.1724935235033653
                ],
                "label": "O",
                "properties": {}
            },
            {
                "species": [
                    {
                        "element": "O",
                        "occu": 1
                    }
                ],
                "abc": [
                    0.40003351,
                    0.42072847,
                    0.62130794
                ],
                "xyz": [
                    1.0128274070453334,
                    1.9456786788650413,
                    5.989797536288155
                ],
                "label": "O",
                "properties": {}
            },
            {
                "species": [
                    {
                        "element": "O",
                        "occu": 1
                    }
                ],
                "abc": [
                    0.24533884,
                    0.9140824,
                    0.87837994
                ],
                "xyz": [
                    -1.130484105157369,
                    4.227217177412267,
                    8.468132566496633
                ],
                "label": "O",
                "properties": {}
            }
        ]
    },
    "spacegroup": {
        "source": "spglib",
        "symbol": "P-3",
        "number": 147,
        "point_group": "-3",
        "crystal_system": "trigonal",
        "hall": "-P 3"
    },
    "dielectric": {
        "epsilon_ionic": [
            [
                21.27102394,
                -7.413e-05,
                -4.028e-05
            ],
            [
                -7.413e-05,
                21.27085676,
                0.00026274
            ],
            [
                -4.028e-05,
                0.00026274,
                19.2880552
            ]
        ],
        "epsilon_ionic_avg": 20.60997863333334,
        "epsilon_ionic_eig": [
            21.27105208395107,
            21.270828651682304,
            19.288055164366654
        ],
        "epsilon_electronic": [
            [
                5.5061144,
                -2.3e-07,
                -0.0
            ],
            [
                -9.6e-07,
                5.50611421,
                -0.0
            ],
            [
                -0.0,
                0.0,
                5.18220752
            ]
        ],
        "epsilon_electronic_avg": 5.398145376666666,
        "epsilon_electronic_eig": [
            5.506114784400667,
            5.506113825599333,
            5.18220752
        ]
    },
    "phonon": {
        "lowest_freq": -0.10511453829314577,
        "frequency": [
            -0.10511453829314577,
            -0.039955899028959956,
            -0.03995589468606925,
            3.749877375510316,
            3.749877776339617,
            3.797304592081469,
            3.797304920324987,
            3.8468880367251814,
            4.026695537250192,
            5.6614265761060585,
            5.9303096096471,
            5.930310083585491,
            6.610773103623558,
            6.610773565748258,
            6.6969505484424925,
            6.825325700957897,
            6.825326041132314,
            6.964241109082747,
            7.171716249946578,
            7.327256217523579,
            7.327256851267256,
            7.577088248103576,
            7.577088425506909,
            7.836068238449502,
            7.836068971393963,
            8.020816795898023,
            8.25389072580395,
            8.267714736801762,
            8.82312663361364,
            9.109129203796764,
            9.109129820892287,
            9.352890748205134,
            9.352890983383883,
            9.66516654305663,
            9.665166770636894,
            10.21088880179191,
            10.249239719613515,
            11.324886019687671,
            11.324886882919747,
            12.387977941614457,
            12.387978612394166,
            12.452146645292055,
            12.452146821936394,
            13.10087973143747,
            13.100880020593777,
            13.257533817086461,
            13.25753390004311,
            13.588218296073432,
            14.541190703468612,
            14.782777065116099,
            15.037590183808994,
            15.037590443850798,
            16.95702362908935,
            17.103613106428195,
            17.103613535109776,
            17.71225506290099,
            17.712255614835517,
            17.953524763135924,
            17.95352530765324,
            20.053952664779217,
            20.826338271056336,
            24.868172554151986,
            26.405901090804413
        ]
    },
    "born_effective_charge": {
        "avg_abs_trace": 3.139620317460317,
        "tensors": [
            [
                [
                    1.00261,
                    -0.04006,
                    -2e-05
                ],
                [
                    0.04005,
                    1.0026,
                    1e-05
                ],
                [
                    0.0,
                    0.0,
                    1.08905
                ]
            ],
            [
                [
                    1.00262,
                    -0.04007,
                    -2e-05
                ],
                [
                    0.04005,
                    1.00261,
                    1e-05
                ],
                [
                    0.0,
                    0.0,
                    1.08906
                ]
            ],
            [
                [
                    1.05104,
                    0.0589,
                    -3e-05
                ],
                [
                    -0.05892,
                    1.05103,
                    1e-05
                ],
                [
                    0.0,
                    0.0,
                    1.01117
                ]
            ],
            [
                [
                    1.05104,
                    0.05891,
                    -2e-05
                ],
                [
                    -0.05893,
                    1.05103,
                    0.0
                ],
                [
                    0.0,
                    0.0,
                    1.01116
                ]
            ],
            [
                [
                    5.48354,
                    0.35344,
                    1e-05
                ],
                [
                    -0.35352,
                    5.48356,
                    1e-05
                ],
                [
                    0.0,
                    0.0,
                    3.60303
                ]
            ],
            [
                [
                    7.33755,
                    1.47572,
                    5e-05
                ],
                [
                    -1.47563,
                    7.33753,
                    0.00015
                ],
                [
                    0.0,
                    0.0,
                    6.98823
                ]
            ],
            [
                [
                    5.74432,
                    -1.11712,
                    6e-05
                ],
                [
                    1.11714,
                    5.74428,
                    6e-05
                ],
                [
                    0.0,
                    0.0,
                    6.35115
                ]
            ],
            [
                [
                    5.4834,
                    0.35343,
                    1e-05
                ],
                [
                    -0.35359,
                    5.48344,
                    2e-05
                ],
                [
                    0.0,
                    0.0,
                    3.60311
                ]
            ],
            [
                [
                    5.74431,
                    -1.11732,
                    -0.0
                ],
                [
                    1.1173,
                    5.74431,
                    0.00015
                ],
                [
                    0.0,
                    0.0,
                    6.35127
                ]
            ],
            [
                [
                    -1.19911,
                    0.06547,
                    -0.18575
                ],
                [
                    0.06258,
                    -4.11812,
                    0.8382
                ],
                [
                    -0.17133,
                    0.75116,
                    -2.55988
                ]
            ],
            [
                [
                    -3.4439,
                    1.23332,
                    0.81881
                ],
                [
                    1.23069,
                    -1.87345,
                    -0.25829
                ],
                [
                    0.73618,
                    -0.22721,
                    -2.55988
                ]
            ],
            [
                [
                    -3.33292,
                    -1.29457,
                    -0.63293
                ],
                [
                    -1.29737,
                    -1.98428,
                    -0.58003
                ],
                [
                    -0.56486,
                    -0.52395,
                    -2.55988
                ]
            ],
            [
                [
                    -3.69874,
                    1.44927,
                    1.91095
                ],
                [
                    1.44746,
                    -2.28413,
                    -1.14297
                ],
                [
                    1.55103,
                    -0.89473,
                    -2.623
                ]
            ],
            [
                [
                    -1.38342,
                    -0.1107,
                    0.03433
                ],
                [
                    -0.11253,
                    -4.59946,
                    2.22635
                ],
                [
                    -0.00066,
                    1.7906,
                    -2.623
                ]
            ],
            [
                [
                    -3.33297,
                    -1.29441,
                    -0.6329
                ],
                [
                    -1.29739,
                    -1.98426,
                    -0.57996
                ],
                [
                    -0.56479,
                    -0.52384,
                    -2.5599
                ]
            ],
            [
                [
                    -3.89215,
                    -1.33589,
                    -1.94536
                ],
                [
                    -1.33765,
                    -2.09073,
                    -1.08354
                ],
                [
                    -1.55034,
                    -0.89576,
                    -2.62296
                ]
            ],
            [
                [
                    -1.3834,
                    -0.11069,
                    0.03424
                ],
                [
                    -0.11258,
                    -4.59948,
                    2.22637
                ],
                [
                    -0.00058,
                    1.79052,
                    -2.62296
                ]
            ],
            [
                [
                    -1.19916,
                    0.06552,
                    -0.18574
                ],
                [
                    0.06243,
                    -4.11807,
                    0.83814
                ],
                [
                    -0.17126,
                    0.75104,
                    -2.5599
                ]
            ],
            [
                [
                    -3.89212,
                    -1.33591,
                    -1.94536
                ],
                [
                    -1.33762,
                    -2.09076,
                    -1.08352
                ],
                [
                    -1.55037,
                    -0.89587,
                    -2.623
                ]
            ],
            [
                [
                    -3.44383,
                    1.23341,
                    0.81869
                ],
                [
                    1.23058,
                    -1.87352,
                    -0.25827
                ],
                [
                    0.73605,
                    -0.22721,
                    -2.5599
                ]
            ],
            [
                [
                    -3.69871,
                    1.44935,
                    1.91097
                ],
                [
                    1.44746,
                    -2.28412,
                    -1.1429
                ],
                [
                    1.55093,
                    -0.89476,
                    -2.62296
                ]
            ]
        ]
    },
    "band_gap": 2.7926,
    "is_direct": false,
    "formula": "Na4Ti5O12"
}