{
    "mp_id": "mp-554346",
    "nelements": 4,
    "nsites": 34,
    "elements": [
        "B",
        "K",
        "O",
        "Sr"
    ],
    "structure": {
        "@module": "pymatgen.core.structure",
        "@class": "Structure",
        "charge": null,
        "lattice": {
            "matrix": [
                [
                    11.00329359,
                    0.0,
                    0.0
                ],
                [
                    0.0,
                    5.97017889,
                    3.43239809
                ],
                [
                    0.0,
                    -5.97017889,
                    3.43239809
                ]
            ],
            "a": 11.00329359,
            "b": 6.886537056230604,
            "c": 6.886537056230604,
            "alpha": 120.20875652729028,
            "beta": 90.0,
            "gamma": 90.0,
            "volume": 450.95965831212783
        },
        "sites": [
            {
                "species": [
                    {
                        "element": "K",
                        "occu": 1
                    }
                ],
                "abc": [
                    0.75,
                    0.74373063,
                    0.90983413
                ],
                "xyz": [
                    8.2524701925,
                    -0.9916676092551153,
                    5.675692523915308
                ],
                "label": "K",
                "properties": {}
            },
            {
                "species": [
                    {
                        "element": "K",
                        "occu": 1
                    }
                ],
                "abc": [
                    0.25,
                    0.90983413,
                    0.74373063
                ],
                "xyz": [
                    2.7508233975,
                    0.9916676092551153,
                    5.675692523915308
                ],
                "label": "K",
                "properties": {}
            },
            {
                "species": [
                    {
                        "element": "Sr",
                        "occu": 1
                    }
                ],
                "abc": [
                    0.52978473,
                    0.14383084,
                    0.71406312
                ],
                "xyz": [
                    5.829376923688881,
                    -3.4043887204525696,
                    2.9446335897265365
                ],
                "label": "Sr",
                "properties": {}
            },
            {
                "species": [
                    {
                        "element": "Sr",
                        "occu": 1
                    }
                ],
                "abc": [
                    0.0,
                    0.28289759,
                    0.28289759
                ],
                "xyz": [
                    0.0,
                    0.0,
                    1.942034295163206
                ],
                "label": "Sr",
                "properties": {}
            },
            {
                "species": [
                    {
                        "element": "Sr",
                        "occu": 1
                    }
                ],
                "abc": [
                    0.97021527,
                    0.14383084,
                    0.71406312
                ],
                "xyz": [
                    10.67556346131112,
                    -3.4043887204525696,
                    2.9446335897265365
                ],
                "label": "Sr",
                "properties": {}
            },
            {
                "species": [
                    {
                        "element": "Sr",
                        "occu": 1
                    }
                ],
                "abc": [
                    0.5,
                    0.28289759,
                    0.28289759
                ],
                "xyz": [
                    5.501646795,
                    0.0,
                    1.942034295163206
                ],
                "label": "Sr",
                "properties": {}
            },
            {
                "species": [
                    {
                        "element": "Sr",
                        "occu": 1
                    }
                ],
                "abc": [
                    0.02978473,
                    0.71406312,
                    0.14383084
                ],
                "xyz": [
                    0.3277301286888807,
                    3.4043887204525696,
                    2.9446335897265365
                ],
                "label": "Sr",
                "properties": {}
            },
            {
                "species": [
                    {
                        "element": "Sr",
                        "occu": 1
                    }
                ],
                "abc": [
                    0.47021527,
                    0.71406312,
                    0.14383084
                ],
                "xyz": [
                    5.173916666311119,
                    3.4043887204525696,
                    2.9446335897265365
                ],
                "label": "Sr",
                "properties": {}
            },
            {
                "species": [
                    {
                        "element": "Sr",
                        "occu": 1
                    }
                ],
                "abc": [
                    0.75,
                    0.70811504,
                    0.41517985
                ],
                "xyz": [
                    8.2524701925,
                    1.7488754874761394,
                    3.8555952349427605
                ],
                "label": "Sr",
                "properties": {}
            },
            {
                "species": [
                    {
                        "element": "Sr",
                        "occu": 1
                    }
                ],
                "abc": [
                    0.25,
                    0.41517985,
                    0.70811504
                ],
                "xyz": [
                    2.7508233975,
                    -1.7488754874761394,
                    3.8555952349427605
                ],
                "label": "Sr",
                "properties": {}
            },
            {
                "species": [
                    {
                        "element": "B",
                        "occu": 1
                    }
                ],
                "abc": [
                    0.75,
                    0.13213909,
                    0.38083916
                ],
                "xyz": [
                    8.2524701925,
                    -1.484783907855522,
                    1.7607455655115425
                ],
                "label": "B",
                "properties": {}
            },
            {
                "species": [
                    {
                        "element": "B",
                        "occu": 1
                    }
                ],
                "abc": [
                    0.75,
                    0.31098311,
                    0.97021982
                ],
                "xyz": [
                    8.2524701925,
                    -3.935761089555051,
                    4.397598489834404
                ],
                "label": "B",
                "properties": {}
            },
            {
                "species": [
                    {
                        "element": "B",
                        "occu": 1
                    }
                ],
                "abc": [
                    0.25,
                    0.38083916,
                    0.13213909
                ],
                "xyz": [
                    2.7508233975,
                    1.484783907855522,
                    1.7607455655115425
                ],
                "label": "B",
                "properties": {}
            },
            {
                "species": [
                    {
                        "element": "B",
                        "occu": 1
                    }
                ],
                "abc": [
                    0.0,
                    0.71257493,
                    0.71257493
                ],
                "xyz": [
                    0.0,
                    0.0,
                    4.8916816574277675
                ],
                "label": "B",
                "properties": {}
            },
            {
                "species": [
                    {
                        "element": "B",
                        "occu": 1
                    }
                ],
                "abc": [
                    0.25,
                    0.97021982,
                    0.31098311
                ],
                "xyz": [
                    2.7508233975,
                    3.935761089555051,
                    4.397598489834404
                ],
                "label": "B",
                "properties": {}
            },
            {
                "species": [
                    {
                        "element": "B",
                        "occu": 1
                    }
                ],
                "abc": [
                    0.5,
                    0.71257493,
                    0.71257493
                ],
                "xyz": [
                    5.501646795,
                    0.0,
                    4.8916816574277675
                ],
                "label": "B",
                "properties": {}
            },
            {
                "species": [
                    {
                        "element": "O",
                        "occu": 1
                    }
                ],
                "abc": [
                    0.75,
                    0.09061406,
                    0.79700835
                ],
                "xyz": [
                    8.2524701925,
                    -4.217300278174538,
                    3.046673464725197
                ],
                "label": "O",
                "properties": {}
            },
            {
                "species": [
                    {
                        "element": "O",
                        "occu": 1
                    }
                ],
                "abc": [
                    0.85888334,
                    0.42902222,
                    0.05556725
                ],
                "xyz": [
                    9.450545549579791,
                    2.2295929782595834,
                    1.6633039712621123
                ],
                "label": "O",
                "properties": {}
            },
            {
                "species": [
                    {
                        "element": "O",
                        "occu": 1
                    }
                ],
                "abc": [
                    0.25,
                    0.79700835,
                    0.09061406
                ],
                "xyz": [
                    2.7508233975,
                    4.217300278174538,
                    3.046673464725197
                ],
                "label": "O",
                "properties": {}
            },
            {
                "species": [
                    {
                        "element": "O",
                        "occu": 1
                    }
                ],
                "abc": [
                    0.02566722,
                    0.51312935,
                    0.71021637
                ],
                "xyz": [
                    0.28242395729911984,
                    -1.1766447662970076,
                    4.199009512737675
                ],
                "label": "O",
                "properties": {}
            },
            {
                "species": [
                    {
                        "element": "O",
                        "occu": 1
                    }
                ],
                "abc": [
                    0.14109951,
                    0.34227617,
                    0.01018567
                ],
                "xyz": [
                    1.5525593339351411,
                    1.9826396926695449,
                    1.2097893464138856
                ],
                "label": "O",
                "properties": {}
            },
            {
                "species": [
                    {
                        "element": "O",
                        "occu": 1
                    }
                ],
                "abc": [
                    0.14111666,
                    0.05556725,
                    0.42902222
                ],
                "xyz": [
                    1.5527480404202094,
                    -2.2295929782595834,
                    1.6633039712621123
                ],
                "label": "O",
                "properties": {}
            },
            {
                "species": [
                    {
                        "element": "O",
                        "occu": 1
                    }
                ],
                "abc": [
                    0.97433278,
                    0.71021637,
                    0.51312935
                ],
                "xyz": [
                    10.72086963270088,
                    1.1766447662970076,
                    4.199009512737675
                ],
                "label": "O",
                "properties": {}
            },
            {
                "species": [
                    {
                        "element": "O",
                        "occu": 1
                    }
                ],
                "abc": [
                    0.64109951,
                    0.01018567,
                    0.34227617
                ],
                "xyz": [
                    7.0542061289351405,
                    -1.9826396926695449,
                    1.2097893464138856
                ],
                "label": "O",
                "properties": {}
            },
            {
                "species": [
                    {
                        "element": "O",
                        "occu": 1
                    }
                ],
                "abc": [
                    0.35890049,
                    0.34227617,
                    0.01018567
                ],
                "xyz": [
                    3.949087461064859,
                    1.9826396926695449,
                    1.2097893464138856
                ],
                "label": "O",
                "properties": {}
            },
            {
                "species": [
                    {
                        "element": "O",
                        "occu": 1
                    }
                ],
                "abc": [
                    0.25,
                    0.44261053,
                    0.35503831
                ],
                "xyz": [
                    2.7508233975,
                    0.5228218191944354,
                    2.7378483549067156
                ],
                "label": "O",
                "properties": {}
            },
            {
                "species": [
                    {
                        "element": "O",
                        "occu": 1
                    }
                ],
                "abc": [
                    0.75,
                    0.35503831,
                    0.44261053
                ],
                "xyz": [
                    8.2524701925,
                    -0.5228218191944354,
                    2.7378483549067156
                ],
                "label": "O",
                "properties": {}
            },
            {
                "species": [
                    {
                        "element": "O",
                        "occu": 1
                    }
                ],
                "abc": [
                    0.64111666,
                    0.42902222,
                    0.05556725
                ],
                "xyz": [
                    7.05439483542021,
                    2.2295929782595834,
                    1.6633039712621123
                ],
                "label": "O",
                "properties": {}
            },
            {
                "species": [
                    {
                        "element": "O",
                        "occu": 1
                    }
                ],
                "abc": [
                    0.35888334,
                    0.05556725,
                    0.42902222
                ],
                "xyz": [
                    3.9488987545797904,
                    -2.2295929782595834,
                    1.6633039712621123
                ],
                "label": "O",
                "properties": {}
            },
            {
                "species": [
                    {
                        "element": "O",
                        "occu": 1
                    }
                ],
                "abc": [
                    0.47433278,
                    0.51312935,
                    0.71021637
                ],
                "xyz": [
                    5.2192228377008805,
                    -1.1766447662970076,
                    4.199009512737675
                ],
                "label": "O",
                "properties": {}
            },
            {
                "species": [
                    {
                        "element": "O",
                        "occu": 1
                    }
                ],
                "abc": [
                    0.85890049,
                    0.01018567,
                    0.34227617
                ],
                "xyz": [
                    9.450734256064859,
                    -1.9826396926695449,
                    1.2097893464138856
                ],
                "label": "O",
                "properties": {}
            },
            {
                "species": [
                    {
                        "element": "O",
                        "occu": 1
                    }
                ],
                "abc": [
                    0.52566722,
                    0.71021637,
                    0.51312935
                ],
                "xyz": [
                    5.78407075229912,
                    1.1766447662970076,
                    4.199009512737675
                ],
                "label": "O",
                "properties": {}
            },
            {
                "species": [
                    {
                        "element": "O",
                        "occu": 1
                    }
                ],
                "abc": [
                    0.5,
                    0.91347997,
                    0.91347997
                ],
                "xyz": [
                    5.501646795,
                    0.0,
                    6.2708538085625145
                ],
                "label": "O",
                "properties": {}
            },
            {
                "species": [
                    {
                        "element": "O",
                        "occu": 1
                    }
                ],
                "abc": [
                    0.0,
                    0.91347997,
                    0.91347997
                ],
                "xyz": [
                    0.0,
                    0.0,
                    6.2708538085625145
                ],
                "label": "O",
                "properties": {}
            }
        ]
    },
    "spacegroup": {
        "source": "spglib",
        "symbol": "Ama2",
        "number": 40,
        "point_group": "mm2",
        "crystal_system": "orthorhombic",
        "hall": "A 2 -2a"
    },
    "dielectric": {
        "epsilon_ionic": [
            [
                9.94893035,
                -0.0,
                1.043e-05
            ],
            [
                -0.0,
                7.33673408,
                -5.06e-06
            ],
            [
                1.043e-05,
                -5.06e-06,
                5.79957246
            ]
        ],
        "epsilon_ionic_avg": 7.695078963333333,
        "epsilon_ionic_eig": [
            9.948930350026215,
            5.799572459957126,
            7.336734080016656
        ],
        "epsilon_electronic": [
            [
                3.12579972,
                0.0,
                0.0
            ],
            [
                0.0,
                3.08600445,
                0.0
            ],
            [
                0.0,
                0.0,
                3.23530188
            ]
        ],
        "epsilon_electronic_avg": 3.14903535,
        "epsilon_electronic_eig": [
            3.12579972,
            3.08600445,
            3.23530188
        ]
    },
    "phonon": {
        "lowest_freq": -0.09089096121607573,
        "frequency": [
            -0.09089096121607573,
            -0.04049946741557634,
            -0.032372063155916495,
            1.9676173825370364,
            2.0647531854841934,
            2.321004298011237,
            2.3383602593082804,
            2.36298256975368,
            2.5916565636779794,
            2.779852830481011,
            2.9667820050247493,
            3.2324937566268335,
            3.3067370960238347,
            3.5077581257555424,
            3.680759482452958,
            3.82776544719518,
            3.9495349862989775,
            3.9971694944589893,
            4.147873616428329,
            4.178578611913657,
            4.198654504364374,
            4.233389373458944,
            4.315937205851352,
            4.427828515318605,
            4.476892370920503,
            4.489789390480591,
            4.62007995242174,
            4.684046676343692,
            4.736415482616901,
            4.769405014708196,
            4.793040807385333,
            5.153784531809757,
            5.2593135338020085,
            5.328717565905584,
            5.3856523903815035,
            5.658939734111116,
            5.743570456677629,
            5.797048247090412,
            5.8485536942081335,
            5.882054215540403,
            6.023572324706543,
            6.549380040761996,
            6.600920082927272,
            6.634046715674598,
            6.700336887073677,
            6.834103986232183,
            6.868481741982258,
            7.001865300418145,
            7.078659037208496,
            7.167492445142804,
            7.277167626643942,
            7.336949936457094,
            7.615795264880579,
            7.899429101661057,
            7.958606274091019,
            8.026766375764346,
            8.150188634304518,
            8.15637564349499,
            8.324745616124318,
            8.547715516544656,
            8.701559412034772,
            8.823140386626116,
            8.851307569157225,
            8.983486034200205,
            9.4834964099941,
            10.070852124268482,
            16.299697882791456,
            16.3667164329172,
            17.03023416972026,
            17.033317336913047,
            17.147731342628475,
            17.288410731238717,
            17.457716603134934,
            17.502479047634395,
            17.543766383048126,
            17.897910655167784,
            17.934531004349857,
            17.98918681113191,
            21.18429655983406,
            21.18459276648352,
            21.755709788126786,
            21.76848245184158,
            22.06734773825443,
            22.216255223303776,
            26.16030909242541,
            26.19803896961608,
            26.46657484644346,
            26.565427625494934,
            26.690505295916566,
            26.751919110304243,
            33.742001444234766,
            34.02649797146739,
            35.178524037798375,
            35.907863536411824,
            36.145705963793276,
            36.69984532446483,
            36.900813322385275,
            36.986903505999,
            37.026979359503564,
            37.14744871285498,
            37.53820154103462,
            37.813263400249625
        ]
    },
    "born_effective_charge": {
        "avg_abs_trace": 1.9926476470588237,
        "tensors": [
            [
                [
                    1.20936,
                    -0.0,
                    -0.0
                ],
                [
                    0.0,
                    1.20527,
                    0.00682
                ],
                [
                    -0.0,
                    0.00961,
                    1.24194
                ]
            ],
            [
                [
                    1.20936,
                    0.0,
                    -0.0
                ],
                [
                    0.0,
                    1.20525,
                    -0.00683
                ],
                [
                    -0.0,
                    -0.00961,
                    1.24194
                ]
            ],
            [
                [
                    2.52049,
                    0.11267,
                    0.02185
                ],
                [
                    0.08252,
                    2.49489,
                    -0.01545
                ],
                [
                    -0.00861,
                    -0.0131,
                    2.48665
                ]
            ],
            [
                [
                    2.4572,
                    -0.05223,
                    0.0
                ],
                [
                    -0.14573,
                    2.37652,
                    1e-05
                ],
                [
                    -0.0,
                    -0.0,
                    2.6429
                ]
            ],
            [
                [
                    2.5205,
                    -0.11267,
                    -0.02182
                ],
                [
                    -0.08252,
                    2.49489,
                    -0.01545
                ],
                [
                    0.00861,
                    -0.0131,
                    2.48665
                ]
            ],
            [
                [
                    2.4572,
                    0.05223,
                    0.0
                ],
                [
                    0.14573,
                    2.37652,
                    1e-05
                ],
                [
                    -0.0,
                    -0.0,
                    2.6429
                ]
            ],
            [
                [
                    2.52049,
                    -0.11267,
                    0.02185
                ],
                [
                    -0.08256,
                    2.49478,
                    0.01546
                ],
                [
                    -0.00861,
                    0.0131,
                    2.48665
                ]
            ],
            [
                [
                    2.5205,
                    0.11267,
                    -0.02182
                ],
                [
                    0.08256,
                    2.49478,
                    0.01546
                ],
                [
                    0.00861,
                    0.0131,
                    2.48665
                ]
            ],
            [
                [
                    2.38002,
                    -0.0,
                    -1e-05
                ],
                [
                    0.0,
                    2.4078,
                    0.29444
                ],
                [
                    -0.0,
                    0.32032,
                    2.72263
                ]
            ],
            [
                [
                    2.38002,
                    0.0,
                    -1e-05
                ],
                [
                    0.0,
                    2.40785,
                    -0.2945
                ],
                [
                    -0.0,
                    -0.32032,
                    2.72263
                ]
            ],
            [
                [
                    2.60181,
                    0.0,
                    0.0
                ],
                [
                    0.0,
                    1.67456,
                    1.24444
                ],
                [
                    -0.0,
                    1.09787,
                    1.50805
                ]
            ],
            [
                [
                    2.609,
                    0.0,
                    1e-05
                ],
                [
                    0.0,
                    0.49954,
                    0.29209
                ],
                [
                    -0.0,
                    0.43477,
                    2.65649
                ]
            ],
            [
                [
                    2.60181,
                    -0.0,
                    0.0
                ],
                [
                    0.0,
                    1.6746,
                    -1.24446
                ],
                [
                    -0.0,
                    -1.09787,
                    1.50805
                ]
            ],
            [
                [
                    0.45343,
                    0.69011,
                    -0.0
                ],
                [
                    0.5713,
                    2.49723,
                    3e-05
                ],
                [
                    -0.0,
                    -0.0,
                    2.66478
                ]
            ],
            [
                [
                    2.609,
                    -0.0,
                    1e-05
                ],
                [
                    0.0,
                    0.49953,
                    -0.29205
                ],
                [
                    -0.0,
                    -0.43477,
                    2.65649
                ]
            ],
            [
                [
                    0.45343,
                    -0.69011,
                    -0.0
                ],
                [
                    -0.5713,
                    2.49723,
                    3e-05
                ],
                [
                    -0.0,
                    -0.0,
                    2.66478
                ]
            ],
            [
                [
                    -1.73852,
                    0.0,
                    1e-05
                ],
                [
                    0.0,
                    -1.16085,
                    -0.18839
                ],
                [
                    -0.0,
                    -0.25151,
                    -2.60662
                ]
            ],
            [
                [
                    -2.42973,
                    0.19273,
                    0.33329
                ],
                [
                    0.15796,
                    -1.25759,
                    -0.03899
                ],
                [
                    0.33491,
                    -0.10757,
                    -2.04525
                ]
            ],
            [
                [
                    -1.73852,
                    -0.0,
                    1e-05
                ],
                [
                    0.0,
                    -1.16084,
                    0.18845
                ],
                [
                    -0.0,
                    0.25151,
                    -2.60662
                ]
            ],
            [
                [
                    -1.34285,
                    -0.34958,
                    -0.12461
                ],
                [
                    -0.28695,
                    -2.31953,
                    -0.33258
                ],
                [
                    -0.11125,
                    -0.32774,
                    -2.01035
                ]
            ],
            [
                [
                    -2.42257,
                    -0.26517,
                    0.31296
                ],
                [
                    -0.2653,
                    -1.7243,
                    0.31998
                ],
                [
                    0.3121,
                    0.25866,
                    -1.61523
                ]
            ],
            [
                [
                    -2.42974,
                    0.19272,
                    -0.3333
                ],
                [
                    0.15794,
                    -1.25761,
                    0.03903
                ],
                [
                    -0.33491,
                    0.10757,
                    -2.04525
                ]
            ],
            [
                [
                    -1.34285,
                    -0.34957,
                    0.12461
                ],
                [
                    -0.28701,
                    -2.31944,
                    0.33252
                ],
                [
                    0.11125,
                    0.32774,
                    -2.01035
                ]
            ],
            [
                [
                    -2.42257,
                    0.26517,
                    0.31296
                ],
                [
                    0.2652,
                    -1.72426,
                    -0.31994
                ],
                [
                    0.3121,
                    -0.25866,
                    -1.61523
                ]
            ],
            [
                [
                    -2.42259,
                    0.26518,
                    -0.31299
                ],
                [
                    0.2653,
                    -1.7243,
                    0.31998
                ],
                [
                    -0.3121,
                    0.25866,
                    -1.61523
                ]
            ],
            [
                [
                    -1.56354,
                    1e-05,
                    -1e-05
                ],
                [
                    0.0,
                    -2.11141,
                    0.82862
                ],
                [
                    -0.0,
                    0.78235,
                    -1.80718
                ]
            ],
            [
                [
                    -1.56354,
                    -1e-05,
                    -1e-05
                ],
                [
                    0.0,
                    -2.11138,
                    -0.82857
                ],
                [
                    -0.0,
                    -0.78235,
                    -1.80718
                ]
            ],
            [
                [
                    -2.42974,
                    -0.19272,
                    -0.3333
                ],
                [
                    -0.15796,
                    -1.25759,
                    -0.03899
                ],
                [
                    -0.33491,
                    -0.10757,
                    -2.04525
                ]
            ],
            [
                [
                    -2.42973,
                    -0.19273,
                    0.33329
                ],
                [
                    -0.15794,
                    -1.25761,
                    0.03903
                ],
                [
                    0.33491,
                    0.10757,
                    -2.04525
                ]
            ],
            [
                [
                    -1.34285,
                    0.34957,
                    0.12461
                ],
                [
                    0.28695,
                    -2.31953,
                    -0.33258
                ],
                [
                    0.11125,
                    -0.32774,
                    -2.01035
                ]
            ],
            [
                [
                    -2.42259,
                    -0.26518,
                    -0.31299
                ],
                [
                    -0.2652,
                    -1.72426,
                    -0.31994
                ],
                [
                    -0.3121,
                    -0.25866,
                    -1.61523
                ]
            ],
            [
                [
                    -1.34285,
                    0.34958,
                    -0.12461
                ],
                [
                    0.28701,
                    -2.31944,
                    0.33252
                ],
                [
                    -0.11125,
                    0.32774,
                    -2.01035
                ]
            ],
            [
                [
                    -1.05942,
                    0.12513,
                    0.0
                ],
                [
                    0.10742,
                    -1.77564,
                    -0.0001
                ],
                [
                    -0.0,
                    -0.0,
                    -2.65463
                ]
            ],
            [
                [
                    -1.05942,
                    -0.12513,
                    0.0
                ],
                [
                    -0.10742,
                    -1.77564,
                    -0.0001
                ],
                [
                    -0.0,
                    -0.0,
                    -2.65463
                ]
            ]
        ]
    },
    "band_gap": 4.2581,
    "is_direct": false,
    "formula": "KSr4(BO3)3"
}