{
    "mp_id": "mp-553961",
    "nelements": 3,
    "nsites": 12,
    "elements": [
        "Nb",
        "O",
        "Sc"
    ],
    "structure": {
        "@module": "pymatgen.core.structure",
        "@class": "Structure",
        "charge": null,
        "lattice": {
            "matrix": [
                [
                    4.8122158,
                    0.0,
                    -0.00045858
                ],
                [
                    0.0,
                    5.70173846,
                    0.0
                ],
                [
                    -0.08936738,
                    0.0,
                    5.13464178
                ]
            ],
            "a": 4.812215821850185,
            "b": 5.70173846,
            "c": 5.135419431509916,
            "alpha": 90.0,
            "beta": 91.00258053553638,
            "gamma": 90.0,
            "volume": 140.8840464624606
        },
        "sites": [
            {
                "species": [
                    {
                        "element": "Sc",
                        "occu": 1
                    }
                ],
                "abc": [
                    0.5,
                    0.3266903,
                    0.75
                ],
                "xyz": [
                    2.339082365,
                    1.862702648018938,
                    3.850752045
                ],
                "label": "Sc",
                "properties": {}
            },
            {
                "species": [
                    {
                        "element": "Sc",
                        "occu": 1
                    }
                ],
                "abc": [
                    0.5,
                    0.6733097,
                    0.25
                ],
                "xyz": [
                    2.3837660549999997,
                    3.839035811981062,
                    1.283431155
                ],
                "label": "Sc",
                "properties": {}
            },
            {
                "species": [
                    {
                        "element": "Nb",
                        "occu": 1
                    }
                ],
                "abc": [
                    0.0,
                    0.17874115,
                    0.25
                ],
                "xyz": [
                    -0.022341845,
                    1.0191352893396288,
                    1.283660445
                ],
                "label": "Nb",
                "properties": {}
            },
            {
                "species": [
                    {
                        "element": "Nb",
                        "occu": 1
                    }
                ],
                "abc": [
                    0.0,
                    0.82125885,
                    0.75
                ],
                "xyz": [
                    -0.067025535,
                    4.682603170660371,
                    3.850981335
                ],
                "label": "Nb",
                "properties": {}
            },
            {
                "species": [
                    {
                        "element": "O",
                        "occu": 1
                    }
                ],
                "abc": [
                    0.77944096,
                    0.10826536,
                    0.56941
                ],
                "xyz": [
                    3.699951423033368,
                    0.6173007669977456,
                    2.923358939914363
                ],
                "label": "O",
                "properties": {}
            },
            {
                "species": [
                    {
                        "element": "O",
                        "occu": 1
                    }
                ],
                "abc": [
                    0.22055904,
                    0.10826536,
                    0.93059
                ],
                "xyz": [
                    0.978213306966632,
                    0.6173007669977456,
                    4.778145150085638
                ],
                "label": "O",
                "properties": {}
            },
            {
                "species": [
                    {
                        "element": "O",
                        "occu": 1
                    }
                ],
                "abc": [
                    0.77944096,
                    0.89173464,
                    0.06941
                ],
                "xyz": [
                    3.7446351130333677,
                    5.084437693002254,
                    0.35603804991436316
                ],
                "label": "O",
                "properties": {}
            },
            {
                "species": [
                    {
                        "element": "O",
                        "occu": 1
                    }
                ],
                "abc": [
                    0.26776575,
                    0.61252012,
                    0.90990128
                ],
                "xyz": [
                    1.2072310793966037,
                    3.492429525727815,
                    4.671894335945844
                ],
                "label": "O",
                "properties": {}
            },
            {
                "species": [
                    {
                        "element": "O",
                        "occu": 1
                    }
                ],
                "abc": [
                    0.73223425,
                    0.38747988,
                    0.09009872
                ],
                "xyz": [
                    3.5156173406033964,
                    2.2093089342721846,
                    0.46228886405415653
                ],
                "label": "O",
                "properties": {}
            },
            {
                "species": [
                    {
                        "element": "O",
                        "occu": 1
                    }
                ],
                "abc": [
                    0.22055904,
                    0.89173464,
                    0.43059
                ],
                "xyz": [
                    1.022896996966632,
                    5.084437693002254,
                    2.2108242600856367
                ],
                "label": "O",
                "properties": {}
            },
            {
                "species": [
                    {
                        "element": "O",
                        "occu": 1
                    }
                ],
                "abc": [
                    0.26776575,
                    0.38747988,
                    0.40990128
                ],
                "xyz": [
                    1.2519147693966037,
                    2.2093089342721846,
                    2.104573445945843
                ],
                "label": "O",
                "properties": {}
            },
            {
                "species": [
                    {
                        "element": "O",
                        "occu": 1
                    }
                ],
                "abc": [
                    0.73223425,
                    0.61252012,
                    0.59009872
                ],
                "xyz": [
                    3.470933650603396,
                    3.492429525727815,
                    3.0296097540541567
                ],
                "label": "O",
                "properties": {}
            }
        ]
    },
    "spacegroup": {
        "source": "spglib",
        "symbol": "P2/c",
        "number": 13,
        "point_group": "2/m",
        "crystal_system": "monoclinic",
        "hall": "-P 2yc"
    },
    "dielectric": {
        "epsilon_ionic": [
            [
                19.51159347,
                -1e-08,
                3.64064004
            ],
            [
                -1e-08,
                15.93863062,
                -1e-08
            ],
            [
                3.64064004,
                -1e-08,
                23.83126706
            ]
        ],
        "epsilon_ionic_avg": 19.760497049999998,
        "epsilon_ionic_eig": [
            25.904532541331985,
            17.43832798866801,
            15.93863062
        ],
        "epsilon_electronic": [
            [
                5.54701473,
                0.0,
                0.15235949
            ],
            [
                0.0,
                5.2838279,
                0.0
            ],
            [
                0.15236717,
                0.0,
                5.79314234
            ]
        ],
        "epsilon_electronic_avg": 5.541328323333334,
        "epsilon_electronic_eig": [
            5.474223271054858,
            5.865933798945142,
            5.2838279
        ]
    },
    "phonon": {
        "lowest_freq": -0.03900724880213107,
        "frequency": [
            -0.03900724880213107,
            -0.03555941845236784,
            -0.016541764540253773,
            4.35712563928423,
            4.55723392501908,
            5.11054414214919,
            5.3886869259962955,
            6.206109519642836,
            6.580219308477913,
            7.1084340373534545,
            7.254564503266057,
            7.693911973351514,
            7.981279792060076,
            8.54927016113488,
            8.639116159521409,
            9.026336273021073,
            9.077970945466761,
            9.622304645212322,
            11.024479483322624,
            11.052302250757533,
            11.71014933935093,
            12.072859875200036,
            12.32811572028389,
            12.490757634368602,
            13.732035656834896,
            13.922225163315105,
            14.605730992285457,
            14.878671064219406,
            16.08108346659766,
            17.382502233632504,
            17.955040499252647,
            17.983309045893197,
            18.178650069425895,
            19.252606082487727,
            21.845816793470135,
            23.918257389757905
        ]
    },
    "born_effective_charge": {
        "avg_abs_trace": 3.7105719444444443,
        "tensors": [
            [
                [
                    5.33471,
                    -8e-05,
                    -0.12687
                ],
                [
                    -0.0,
                    4.37439,
                    0.0
                ],
                [
                    0.0256,
                    7e-05,
                    4.6349
                ]
            ],
            [
                [
                    5.33471,
                    8e-05,
                    -0.12687
                ],
                [
                    -0.0,
                    4.37407,
                    0.0
                ],
                [
                    0.0256,
                    -7e-05,
                    4.6349
                ]
            ],
            [
                [
                    5.74271,
                    7e-05,
                    0.47862
                ],
                [
                    -0.0,
                    6.10544,
                    0.0
                ],
                [
                    0.34515,
                    7e-05,
                    7.20271
                ]
            ],
            [
                [
                    5.74271,
                    -7e-05,
                    0.47862
                ],
                [
                    -0.0,
                    6.10633,
                    0.0
                ],
                [
                    0.34515,
                    -7e-05,
                    7.20271
                ]
            ],
            [
                [
                    -2.50986,
                    0.83324,
                    0.96144
                ],
                [
                    0.79656,
                    -2.47567,
                    0.40313
                ],
                [
                    0.94419,
                    0.57472,
                    -3.30503
                ]
            ],
            [
                [
                    -2.5098,
                    -0.83325,
                    0.96152
                ],
                [
                    -0.79656,
                    -2.47567,
                    -0.40313
                ],
                [
                    0.94389,
                    -0.57445,
                    -3.30499
                ]
            ],
            [
                [
                    -2.50986,
                    -0.83324,
                    0.96144
                ],
                [
                    -0.79665,
                    -2.47544,
                    -0.4031
                ],
                [
                    0.94419,
                    -0.57472,
                    -3.30503
                ]
            ],
            [
                [
                    -3.02888,
                    1.42042,
                    -1.13736
                ],
                [
                    1.44444,
                    -2.76457,
                    0.40166
                ],
                [
                    -1.12931,
                    0.24474,
                    -2.61367
                ]
            ],
            [
                [
                    -3.02887,
                    1.42051,
                    -1.13735
                ],
                [
                    1.44421,
                    -2.76444,
                    0.40148
                ],
                [
                    -1.12951,
                    0.24479,
                    -2.61393
                ]
            ],
            [
                [
                    -2.5098,
                    0.83325,
                    0.96152
                ],
                [
                    0.79665,
                    -2.47544,
                    0.4031
                ],
                [
                    0.94389,
                    0.57445,
                    -3.30499
                ]
            ],
            [
                [
                    -3.02888,
                    -1.42042,
                    -1.13736
                ],
                [
                    -1.44421,
                    -2.76444,
                    -0.40148
                ],
                [
                    -1.12931,
                    -0.24474,
                    -2.61367
                ]
            ],
            [
                [
                    -3.02887,
                    -1.42051,
                    -1.13735
                ],
                [
                    -1.44444,
                    -2.76457,
                    -0.40166
                ],
                [
                    -1.12951,
                    -0.24479,
                    -2.61393
                ]
            ]
        ]
    },
    "band_gap": 3.5266,
    "is_direct": false,
    "formula": "ScNbO4"
}