{
    "mp_id": "mp-557993",
    "nelements": 2,
    "nsites": 12,
    "elements": [
        "Bi",
        "O"
    ],
    "structure": {
        "@module": "pymatgen.core.structure",
        "@class": "Structure",
        "charge": null,
        "lattice": {
            "matrix": [
                [
                    6.15480954,
                    -2.61746903,
                    -0.00029187
                ],
                [
                    6.15480954,
                    2.61746903,
                    -0.00029187
                ],
                [
                    -1.82168481,
                    0.0,
                    5.27085339
                ]
            ],
            "a": 6.688260213379279,
            "b": 6.688260213379279,
            "c": 5.576776040496806,
            "alpha": 107.49622638657073,
            "beta": 107.49622638657073,
            "gamma": 46.0773954022526,
            "volume": 169.8243590520056
        },
        "sites": [
            {
                "species": [
                    {
                        "element": "Bi",
                        "occu": 1
                    }
                ],
                "abc": [
                    0.26004109,
                    0.73995891,
                    0.25
                ],
                "xyz": [
                    5.6993883375,
                    1.256170030795115,
                    1.3174214775
                ],
                "label": "Bi",
                "properties": {}
            },
            {
                "species": [
                    {
                        "element": "Bi",
                        "occu": 1
                    }
                ],
                "abc": [
                    0.73995891,
                    0.26004109,
                    0.75
                ],
                "xyz": [
                    4.7885459325,
                    -1.256170030795115,
                    3.9528481725000004
                ],
                "label": "Bi",
                "properties": {}
            },
            {
                "species": [
                    {
                        "element": "Bi",
                        "occu": 1
                    }
                ],
                "abc": [
                    0.0,
                    0.5,
                    0.5
                ],
                "xyz": [
                    2.166562365,
                    1.308734515,
                    2.63528076
                ],
                "label": "Bi",
                "properties": {}
            },
            {
                "species": [
                    {
                        "element": "Bi",
                        "occu": 1
                    }
                ],
                "abc": [
                    0.5,
                    0.0,
                    0.0
                ],
                "xyz": [
                    3.07740477,
                    -1.308734515,
                    -0.000145935
                ],
                "label": "Bi",
                "properties": {}
            },
            {
                "species": [
                    {
                        "element": "O",
                        "occu": 1
                    }
                ],
                "abc": [
                    0.67400579,
                    0.51411003,
                    0.4852209
                ],
                "xyz": [
                    6.428707040536393,
                    -0.41852219982831285,
                    2.557181450299468
                ],
                "label": "O",
                "properties": {}
            },
            {
                "species": [
                    {
                        "element": "O",
                        "occu": 1
                    }
                ],
                "abc": [
                    0.88886466,
                    0.76820407,
                    0.85536017
                ],
                "xyz": [
                    8.640745799071665,
                    -0.31582535746652773,
                    4.5079944030652515
                ],
                "label": "O",
                "properties": {}
            },
            {
                "species": [
                    {
                        "element": "O",
                        "occu": 1
                    }
                ],
                "abc": [
                    0.11113534,
                    0.23179593,
                    0.14463983
                ],
                "xyz": [
                    1.8471884709283335,
                    0.31582535746652773,
                    0.7622752469347489
                ],
                "label": "O",
                "properties": {}
            },
            {
                "species": [
                    {
                        "element": "O",
                        "occu": 1
                    }
                ],
                "abc": [
                    0.23179593,
                    0.11113534,
                    0.64463983
                ],
                "xyz": [
                    0.9363460659283334,
                    -0.31582535746652773,
                    3.397701941934749
                ],
                "label": "O",
                "properties": {}
            },
            {
                "species": [
                    {
                        "element": "O",
                        "occu": 1
                    }
                ],
                "abc": [
                    0.76820407,
                    0.88886466,
                    0.35536017
                ],
                "xyz": [
                    9.551588204071665,
                    0.31582535746652773,
                    1.8725677080652512
                ],
                "label": "O",
                "properties": {}
            },
            {
                "species": [
                    {
                        "element": "O",
                        "occu": 1
                    }
                ],
                "abc": [
                    0.51411003,
                    0.67400579,
                    0.9852209
                ],
                "xyz": [
                    5.517864635536393,
                    0.41852219982831285,
                    5.1926081452994675
                ],
                "label": "O",
                "properties": {}
            },
            {
                "species": [
                    {
                        "element": "O",
                        "occu": 1
                    }
                ],
                "abc": [
                    0.48588997,
                    0.32599421,
                    0.0147791
                ],
                "xyz": [
                    4.970069634463606,
                    -0.41852219982831274,
                    0.0776615047005324
                ],
                "label": "O",
                "properties": {}
            },
            {
                "species": [
                    {
                        "element": "O",
                        "occu": 1
                    }
                ],
                "abc": [
                    0.32599421,
                    0.48588997,
                    0.5147791
                ],
                "xyz": [
                    4.059227229463606,
                    0.41852219982831274,
                    2.713088199700533
                ],
                "label": "O",
                "properties": {}
            }
        ]
    },
    "spacegroup": {
        "source": "spglib",
        "symbol": "C2/c",
        "number": 15,
        "point_group": "2/m",
        "crystal_system": "monoclinic",
        "hall": "-C 2yc"
    },
    "dielectric": {
        "epsilon_ionic": [
            [
                24.93416395,
                1e-08,
                -3.10054648
            ],
            [
                1e-08,
                14.59657534,
                1.2e-07
            ],
            [
                -3.10054648,
                1.2e-07,
                29.19811023
            ]
        ],
        "epsilon_ionic_avg": 22.909616506666676,
        "epsilon_ionic_eig": [
            30.82894162177174,
            23.303332558228284,
            14.596575339999998
        ],
        "epsilon_electronic": [
            [
                8.28089793,
                0.0,
                -0.10231174
            ],
            [
                0.0,
                7.03947311,
                0.0
            ],
            [
                -0.1023149,
                0.0,
                7.69262255
            ]
        ],
        "epsilon_electronic_avg": 7.6709978633333336,
        "epsilon_electronic_eig": [
            8.298184381847516,
            7.675336098152484,
            7.03947311
        ]
    },
    "phonon": {
        "lowest_freq": -0.07245423408219358,
        "frequency": [
            -0.07245423408219358,
            -0.014836678285662002,
            -0.009427474712046602,
            1.5496537556686951,
            1.6412393731222026,
            2.8033293389497675,
            2.8143783224424372,
            3.2380031512524843,
            3.7030136454985265,
            3.7788146388670043,
            3.825658581231529,
            4.205919377987712,
            4.658138329398559,
            5.329222214440206,
            5.531921305508285,
            5.535770052453621,
            5.866249895590258,
            6.105808102564922,
            7.372000346941871,
            7.8579212284204,
            10.129984947433455,
            10.484713774610409,
            10.74200848999726,
            10.840932192135423,
            11.112765434704382,
            12.250008126903218,
            13.119998926873775,
            14.494647572063727,
            14.622603756657028,
            14.792872952739335,
            16.122058842506597,
            16.374415218842714,
            16.88350526080577,
            17.29839581180055,
            18.967489615856334,
            19.26009406380243
        ]
    },
    "born_effective_charge": {
        "avg_abs_trace": 3.400751944444444,
        "tensors": [
            [
                [
                    5.14203,
                    0.00039,
                    -0.05444
                ],
                [
                    0.0,
                    4.28275,
                    0.0
                ],
                [
                    0.0856,
                    -0.00018,
                    5.0452
                ]
            ],
            [
                [
                    5.14203,
                    -0.00039,
                    -0.05444
                ],
                [
                    0.0,
                    4.28162,
                    0.0
                ],
                [
                    0.0856,
                    0.00018,
                    5.0452
                ]
            ],
            [
                [
                    5.56017,
                    -0.17478,
                    -0.22829
                ],
                [
                    0.2779,
                    5.37294,
                    0.91126
                ],
                [
                    -0.44504,
                    -0.25868,
                    5.20423
                ]
            ],
            [
                [
                    5.56017,
                    0.17478,
                    -0.22829
                ],
                [
                    -0.2779,
                    5.37294,
                    -0.91126
                ],
                [
                    -0.44504,
                    0.25868,
                    5.20423
                ]
            ],
            [
                [
                    -3.13516,
                    0.57649,
                    0.26263
                ],
                [
                    0.6761,
                    -2.42316,
                    0.56685
                ],
                [
                    0.20019,
                    1.05238,
                    -2.32262
                ]
            ],
            [
                [
                    -2.21637,
                    0.23703,
                    -0.1214
                ],
                [
                    0.30496,
                    -2.40458,
                    -0.40493
                ],
                [
                    -0.02027,
                    -0.79486,
                    -2.80292
                ]
            ],
            [
                [
                    -2.21659,
                    0.23897,
                    -0.12073
                ],
                [
                    0.30467,
                    -2.40458,
                    -0.40479
                ],
                [
                    -0.0196,
                    -0.79703,
                    -2.80189
                ]
            ],
            [
                [
                    -2.21659,
                    -0.23897,
                    -0.12073
                ],
                [
                    -0.30496,
                    -2.40458,
                    0.40493
                ],
                [
                    -0.0196,
                    0.79703,
                    -2.80189
                ]
            ],
            [
                [
                    -2.21637,
                    -0.23703,
                    -0.1214
                ],
                [
                    -0.30467,
                    -2.40458,
                    0.40479
                ],
                [
                    -0.02027,
                    0.79486,
                    -2.80292
                ]
            ],
            [
                [
                    -3.13516,
                    -0.57649,
                    0.26263
                ],
                [
                    -0.67603,
                    -2.42281,
                    -0.56754
                ],
                [
                    0.20019,
                    -1.05238,
                    -2.32262
                ]
            ],
            [
                [
                    -3.13409,
                    -0.57682,
                    0.26223
                ],
                [
                    -0.6761,
                    -2.42316,
                    -0.56685
                ],
                [
                    0.19911,
                    -1.05203,
                    -2.32201
                ]
            ],
            [
                [
                    -3.13409,
                    0.57682,
                    0.26223
                ],
                [
                    0.67603,
                    -2.42281,
                    0.56754
                ],
                [
                    0.19911,
                    1.05203,
                    -2.32201
                ]
            ]
        ]
    },
    "band_gap": 1.0634000000000006,
    "is_direct": false,
    "formula": "BiO2"
}