{
    "mp_id": "mp-559364",
    "nelements": 4,
    "nsites": 34,
    "elements": [
        "B",
        "Bi",
        "O",
        "Sr"
    ],
    "structure": {
        "@module": "pymatgen.core.structure",
        "@class": "Structure",
        "charge": null,
        "lattice": {
            "matrix": [
                [
                    6.76478693,
                    -0.00147796,
                    -0.00039396
                ],
                [
                    -1.47213685,
                    6.65887191,
                    -0.00114259
                ],
                [
                    -3.19106477,
                    -1.74113374,
                    9.1211764
                ]
            ],
            "a": 6.764787102922683,
            "b": 6.819660059301115,
            "c": 9.818874680268534,
            "alpha": 95.9202956608566,
            "beta": 108.96607604850664,
            "gamma": 102.47889124582476,
            "volume": 410.8284511241638
        },
        "sites": [
            {
                "species": [
                    {
                        "element": "Sr",
                        "occu": 1
                    }
                ],
                "abc": [
                    0.0367089,
                    0.84773848,
                    0.16890153
                ],
                "xyz": [
                    -1.538634890618409,
                    5.35084754459163,
                    1.5395975700117848
                ],
                "label": "Sr",
                "properties": {}
            },
            {
                "species": [
                    {
                        "element": "Sr",
                        "occu": 1
                    }
                ],
                "abc": [
                    0.9632911,
                    0.15226152,
                    0.83109847
                ],
                "xyz": [
                    3.640220200618408,
                    -0.4345873345916307,
                    7.5800422799882154
                ],
                "label": "Sr",
                "properties": {}
            },
            {
                "species": [
                    {
                        "element": "Bi",
                        "occu": 1
                    }
                ],
                "abc": [
                    0.7283135,
                    0.63485342,
                    0.66549466
                ],
                "xyz": [
                    1.868657967662899,
                    3.067615980869143,
                    6.069081883562405
                ],
                "label": "Bi",
                "properties": {}
            },
            {
                "species": [
                    {
                        "element": "Bi",
                        "occu": 1
                    }
                ],
                "abc": [
                    0.2716865,
                    0.36514658,
                    0.33450534
                ],
                "xyz": [
                    0.23292734233710033,
                    1.8486442291308562,
                    3.0505579664375935
                ],
                "label": "Bi",
                "properties": {}
            },
            {
                "species": [
                    {
                        "element": "Bi",
                        "occu": 1
                    }
                ],
                "abc": [
                    0.70013859,
                    0.02782996,
                    0.40274206
                ],
                "xyz": [
                    3.4101428741073763,
                    -0.5169464271131572,
                    3.6731737481264712
                ],
                "label": "Bi",
                "properties": {}
            },
            {
                "species": [
                    {
                        "element": "Bi",
                        "occu": 1
                    }
                ],
                "abc": [
                    0.29986141,
                    0.97217004,
                    0.59725794
                ],
                "xyz": [
                    -1.3085575641073768,
                    5.433206637113157,
                    5.446466101873528
                ],
                "label": "Bi",
                "properties": {}
            },
            {
                "species": [
                    {
                        "element": "B",
                        "occu": 1
                    }
                ],
                "abc": [
                    0.39457138,
                    0.2057291,
                    0.07161332
                ],
                "xyz": [
                    2.1378071826339924,
                    1.2446521966573796,
                    0.6528072149564141
                ],
                "label": "B",
                "properties": {}
            },
            {
                "species": [
                    {
                        "element": "B",
                        "occu": 1
                    }
                ],
                "abc": [
                    0.60542862,
                    0.7942709,
                    0.92838668
                ],
                "xyz": [
                    -0.0362218726339929,
                    3.6716080133426203,
                    8.466832635043586
                ],
                "label": "B",
                "properties": {}
            },
            {
                "species": [
                    {
                        "element": "B",
                        "occu": 1
                    }
                ],
                "abc": [
                    0.8460835,
                    0.60140824,
                    0.36892546
                ],
                "xyz": [
                    3.6609543323289664,
                    3.3611013922578588,
                    3.364013713014542
                ],
                "label": "B",
                "properties": {}
            },
            {
                "species": [
                    {
                        "element": "B",
                        "occu": 1
                    }
                ],
                "abc": [
                    0.1539165,
                    0.39859176,
                    0.63107454
                ],
                "xyz": [
                    -1.559369022328967,
                    1.5551588177421425,
                    5.755626136985457
                ],
                "label": "B",
                "properties": {}
            },
            {
                "species": [
                    {
                        "element": "B",
                        "occu": 1
                    }
                ],
                "abc": [
                    0.41198826,
                    0.74509971,
                    0.09618654
                ],
                "xyz": [
                    1.383186577403932,
                    4.793440996771538,
                    0.8763207482730975
                ],
                "label": "B",
                "properties": {}
            },
            {
                "species": [
                    {
                        "element": "B",
                        "occu": 1
                    }
                ],
                "abc": [
                    0.20000088,
                    0.7071966,
                    0.82584015
                ],
                "xyz": [
                    -2.323436244358727,
                    3.2709378322752403,
                    7.531746858242581
                ],
                "label": "B",
                "properties": {}
            },
            {
                "species": [
                    {
                        "element": "B",
                        "occu": 1
                    }
                ],
                "abc": [
                    0.79999912,
                    0.2928034,
                    0.17415985
                ],
                "xyz": [
                    4.425021554358726,
                    1.6453223777247596,
                    1.5878929917574187
                ],
                "label": "B",
                "properties": {}
            },
            {
                "species": [
                    {
                        "element": "B",
                        "occu": 1
                    }
                ],
                "abc": [
                    0.58801174,
                    0.25490029,
                    0.90381346
                ],
                "xyz": [
                    0.7183987325960679,
                    0.1228192132284629,
                    8.243319101726902
                ],
                "label": "B",
                "properties": {}
            },
            {
                "species": [
                    {
                        "element": "O",
                        "occu": 1
                    }
                ],
                "abc": [
                    0.07560426,
                    0.18737603,
                    0.5998545
                ],
                "xyz": [
                    -1.6785710107453486,
                    0.20317433366137783,
                    5.471134829801412
                ],
                "label": "O",
                "properties": {}
            },
            {
                "species": [
                    {
                        "element": "O",
                        "occu": 1
                    }
                ],
                "abc": [
                    0.64024922,
                    0.89660815,
                    0.58909117
                ],
                "xyz": [
                    1.1313915788682856,
                    4.9437660495518,
                    5.371927789163568
                ],
                "label": "O",
                "properties": {}
            },
            {
                "species": [
                    {
                        "element": "O",
                        "occu": 1
                    }
                ],
                "abc": [
                    0.60410909,
                    0.76433984,
                    0.06709899
                ],
                "xyz": [
                    2.747339208847507,
                    4.971919925790314,
                    0.6109104021769539
                ],
                "label": "O",
                "properties": {}
            },
            {
                "species": [
                    {
                        "element": "O",
                        "occu": 1
                    }
                ],
                "abc": [
                    0.41617047,
                    0.79082839,
                    0.82016258
                ],
                "xyz": [
                    -0.966094973547521,
                    3.837397128170235,
                    7.479780021730621
                ],
                "label": "O",
                "properties": {}
            },
            {
                "species": [
                    {
                        "element": "O",
                        "occu": 1
                    }
                ],
                "abc": [
                    0.58382953,
                    0.20917161,
                    0.17983742
                ],
                "xyz": [
                    3.0676802835475208,
                    1.0788630818297658,
                    1.6398598282693793
                ],
                "label": "O",
                "properties": {}
            },
            {
                "species": [
                    {
                        "element": "O",
                        "occu": 1
                    }
                ],
                "abc": [
                    0.35975078,
                    0.10339185,
                    0.41090883
                ],
                "xyz": [
                    0.9701937311317135,
                    -0.027505839551799416,
                    3.7477120608364314
                ],
                "label": "O",
                "properties": {}
            },
            {
                "species": [
                    {
                        "element": "O",
                        "occu": 1
                    }
                ],
                "abc": [
                    0.20586702,
                    0.17562961,
                    0.0943738
                ],
                "xyz": [
                    0.832942796990894,
                    1.004873406020364,
                    0.8605183013310308
                ],
                "label": "O",
                "properties": {}
            },
            {
                "species": [
                    {
                        "element": "O",
                        "occu": 1
                    }
                ],
                "abc": [
                    0.78245759,
                    0.28620116,
                    0.01782612
                ],
                "xyz": [
                    4.81494730044476,
                    1.8735827649284105,
                    0.16195991747200722
                ],
                "label": "O",
                "properties": {}
            },
            {
                "species": [
                    {
                        "element": "O",
                        "occu": 1
                    }
                ],
                "abc": [
                    0.21754241,
                    0.71379884,
                    0.98217388
                ],
                "xyz": [
                    -2.713361990444761,
                    3.0426774450715905,
                    8.957679932527993
                ],
                "label": "O",
                "properties": {}
            },
            {
                "species": [
                    {
                        "element": "O",
                        "occu": 1
                    }
                ],
                "abc": [
                    0.73943854,
                    0.49296339,
                    0.44570117
                ],
                "xyz": [
                    2.8541732972755796,
                    2.5054618647003206,
                    4.064464429009389
                ],
                "label": "O",
                "properties": {}
            },
            {
                "species": [
                    {
                        "element": "O",
                        "occu": 1
                    }
                ],
                "abc": [
                    0.88759975,
                    0.51066086,
                    0.24931786
                ],
                "xyz": [
                    4.457071078434783,
                    2.9650176812333364,
                    2.2731390259409663
                ],
                "label": "O",
                "properties": {}
            },
            {
                "species": [
                    {
                        "element": "O",
                        "occu": 1
                    }
                ],
                "abc": [
                    0.93903288,
                    0.17448977,
                    0.2517637
                ],
                "xyz": [
                    5.292090259664384,
                    0.7221629024227978,
                    2.2958118071569706
                ],
                "label": "O",
                "properties": {}
            },
            {
                "species": [
                    {
                        "element": "O",
                        "occu": 1
                    }
                ],
                "abc": [
                    0.58071328,
                    0.23489772,
                    0.76293575
                ],
                "xyz": [
                    1.1480226234299207,
                    0.23492238265453147,
                    6.958374388026616
                ],
                "label": "O",
                "properties": {}
            },
            {
                "species": [
                    {
                        "element": "O",
                        "occu": 1
                    }
                ],
                "abc": [
                    0.79413298,
                    0.82437039,
                    0.9056262
                ],
                "xyz": [
                    1.2686425130091052,
                    3.911386803979636,
                    8.259121548668968
                ],
                "label": "O",
                "properties": {}
            },
            {
                "species": [
                    {
                        "element": "O",
                        "occu": 1
                    }
                ],
                "abc": [
                    0.11240025,
                    0.48933914,
                    0.75068214
                ],
                "xyz": [
                    -2.355485768434785,
                    1.9512425287666635,
                    6.846500824059033
                ],
                "label": "O",
                "properties": {}
            },
            {
                "species": [
                    {
                        "element": "O",
                        "occu": 1
                    }
                ],
                "abc": [
                    0.26056146,
                    0.50703661,
                    0.55429883
                ],
                "xyz": [
                    -0.7525879872755801,
                    2.4107983452996793,
                    5.055175420990611
                ],
                "label": "O",
                "properties": {}
            },
            {
                "species": [
                    {
                        "element": "O",
                        "occu": 1
                    }
                ],
                "abc": [
                    0.06096712,
                    0.82551023,
                    0.7482363
                ],
                "xyz": [
                    -3.190504949664385,
                    4.194097307577202,
                    6.8238280428430285
                ],
                "label": "O",
                "properties": {}
            },
            {
                "species": [
                    {
                        "element": "O",
                        "occu": 1
                    }
                ],
                "abc": [
                    0.92439574,
                    0.81262397,
                    0.4001455
                ],
                "xyz": [
                    3.7801563207453484,
                    4.7130858763386225,
                    3.648505020198587
                ],
                "label": "O",
                "properties": {}
            },
            {
                "species": [
                    {
                        "element": "O",
                        "occu": 1
                    }
                ],
                "abc": [
                    0.41928672,
                    0.76510228,
                    0.23706425
                ],
                "xyz": [
                    0.953562686570079,
                    4.681337827345469,
                    2.1612654619733833
                ],
                "label": "O",
                "properties": {}
            },
            {
                "species": [
                    {
                        "element": "O",
                        "occu": 1
                    }
                ],
                "abc": [
                    0.39589091,
                    0.23566016,
                    0.93290101
                ],
                "xyz": [
                    -0.6457538988475076,
                    -0.05565971579031537,
                    8.508729447823045
                ],
                "label": "O",
                "properties": {}
            }
        ]
    },
    "spacegroup": {
        "source": "spglib",
        "symbol": "P-1",
        "number": 2,
        "point_group": "-1",
        "crystal_system": "triclinic",
        "hall": "-P 1"
    },
    "dielectric": {
        "epsilon_ionic": [
            [
                16.38784144,
                -0.20455348,
                1.6533616
            ],
            [
                -0.20455348,
                6.57457275,
                0.53683688
            ],
            [
                1.6533616,
                0.53683688,
                8.48668439
            ]
        ],
        "epsilon_ionic_avg": 10.483032859999998,
        "epsilon_ionic_eig": [
            16.720754425066055,
            8.336735086007952,
            6.3916090689259875
        ],
        "epsilon_electronic": [
            [
                4.13723267,
                0.05276601,
                -0.04237299
            ],
            [
                0.05276658,
                3.7855044,
                -0.04650048
            ],
            [
                -0.04237029,
                -0.04650028,
                3.97512651
            ]
        ],
        "epsilon_electronic_avg": 3.965954526666666,
        "epsilon_electronic_eig": [
            4.158220533499683,
            3.9698642541350666,
            3.7697787923652477
        ]
    },
    "phonon": {
        "lowest_freq": -0.03452555603681235,
        "frequency": [
            -0.03452555603681235,
            -0.025309788755164014,
            -0.02216409586782618,
            1.869317346927179,
            2.0959679640887554,
            2.1958725589192767,
            2.3191771308348756,
            2.5410496558740316,
            2.591152033009455,
            2.747264402513146,
            3.077110127874584,
            3.1525266334905027,
            3.243328836606366,
            3.325730893605506,
            3.5183270510479074,
            3.634591973222898,
            3.9384385262147013,
            3.9468870078222156,
            4.0474911254110015,
            4.252494162951164,
            4.331051574577584,
            4.551747813909784,
            4.698322799126627,
            4.753070841807746,
            4.836725717585625,
            4.915420062777447,
            5.189703583221911,
            5.274221555725185,
            5.540702108705979,
            5.633080029156135,
            5.891599759707952,
            6.052518909391617,
            6.304937734052925,
            6.3240488615182056,
            6.543372925734761,
            6.721487553282641,
            6.942908354364414,
            7.104385262896521,
            7.62682692617309,
            8.102652803625144,
            8.164242139674469,
            8.20972349651894,
            8.630113200398915,
            8.95498764411035,
            10.270537135880701,
            10.287862435969695,
            10.7826714857605,
            11.0029269338532,
            11.286809388695161,
            11.48037116895053,
            12.209002731225427,
            12.263954747708443,
            12.544555166492886,
            12.727401198830963,
            13.91276234772971,
            14.090741006707384,
            14.337587778118356,
            14.481542780730903,
            15.467751169361904,
            15.550846503278086,
            15.94791465045154,
            16.212227663249852,
            16.597953154847296,
            16.952790604272412,
            18.05617503150188,
            18.169279160590754,
            18.701723020625845,
            18.776615418587884,
            19.1125104792965,
            19.839341796373798,
            19.958772106551713,
            20.099225681372285,
            20.429812832024457,
            20.514430800258822,
            20.661896640236264,
            21.15210209880006,
            22.051279979444438,
            22.055814728896383,
            24.308337958708158,
            24.393236557499996,
            26.908323056506507,
            27.031921541806486,
            27.695348933103134,
            27.78257054054542,
            29.663759482916447,
            29.6878146124643,
            30.163297159081907,
            30.20701164574542,
            31.33406953997345,
            31.34169488704926,
            35.236512698133005,
            35.56249612043991,
            36.59475990441639,
            37.03418443011873,
            37.73392467090528,
            38.148684936100054,
            39.340260136980085,
            39.75959609434827,
            40.129054174217956,
            40.587452002432556,
            42.39716350382744,
            42.820120987359644
        ]
    },
    "born_effective_charge": {
        "avg_abs_trace": 2.3724160784313724,
        "tensors": [
            [
                [
                    2.62146,
                    0.13242,
                    -0.11131
                ],
                [
                    0.06357,
                    2.34445,
                    -0.04704
                ],
                [
                    0.08832,
                    0.01075,
                    2.79657
                ]
            ],
            [
                [
                    2.62143,
                    0.13237,
                    -0.11125
                ],
                [
                    0.06349,
                    2.34442,
                    -0.04701
                ],
                [
                    0.08837,
                    0.01063,
                    2.79651
                ]
            ],
            [
                [
                    3.99864,
                    -0.22058,
                    -0.06054
                ],
                [
                    -0.13172,
                    3.81891,
                    0.54021
                ],
                [
                    -0.03937,
                    0.28277,
                    3.77585
                ]
            ],
            [
                [
                    3.99858,
                    -0.22057,
                    -0.06048
                ],
                [
                    -0.13179,
                    3.81887,
                    0.5402
                ],
                [
                    -0.03933,
                    0.28272,
                    3.77556
                ]
            ],
            [
                [
                    5.29947,
                    0.08434,
                    0.17789
                ],
                [
                    0.09461,
                    4.1675,
                    -0.73861
                ],
                [
                    0.23405,
                    -0.36981,
                    3.99344
                ]
            ],
            [
                [
                    5.29945,
                    0.08428,
                    0.17796
                ],
                [
                    0.0946,
                    4.16753,
                    -0.73859
                ],
                [
                    0.23397,
                    -0.36978,
                    3.9935
                ]
            ],
            [
                [
                    3.01188,
                    0.36015,
                    -0.01997
                ],
                [
                    0.07826,
                    0.78764,
                    -0.49329
                ],
                [
                    -0.37141,
                    -0.69322,
                    2.84838
                ]
            ],
            [
                [
                    3.0119,
                    0.36017,
                    -0.01997
                ],
                [
                    0.07824,
                    0.78764,
                    -0.49332
                ],
                [
                    -0.37144,
                    -0.69327,
                    2.84843
                ]
            ],
            [
                [
                    1.64724,
                    0.50702,
                    -1.40413
                ],
                [
                    0.25578,
                    3.19694,
                    0.38813
                ],
                [
                    -1.07854,
                    -0.03838,
                    1.74454
                ]
            ],
            [
                [
                    1.64724,
                    0.50702,
                    -1.40414
                ],
                [
                    0.25577,
                    3.19689,
                    0.38813
                ],
                [
                    -1.07848,
                    -0.03834,
                    1.74461
                ]
            ],
            [
                [
                    2.27876,
                    0.0903,
                    0.04048
                ],
                [
                    0.1248,
                    0.61653,
                    -0.13047
                ],
                [
                    -0.60659,
                    -0.25885,
                    3.70552
                ]
            ],
            [
                [
                    2.37392,
                    -0.4833,
                    0.49371
                ],
                [
                    0.03379,
                    2.21757,
                    0.18217
                ],
                [
                    0.24329,
                    -0.04017,
                    3.2516
                ]
            ],
            [
                [
                    2.37387,
                    -0.48331,
                    0.4937
                ],
                [
                    0.03373,
                    2.21756,
                    0.18219
                ],
                [
                    0.24343,
                    -0.04017,
                    3.2516
                ]
            ],
            [
                [
                    2.27869,
                    0.09029,
                    0.04042
                ],
                [
                    0.12477,
                    0.61657,
                    -0.13055
                ],
                [
                    -0.60648,
                    -0.25885,
                    3.70559
                ]
            ],
            [
                [
                    -2.23908,
                    0.3094,
                    -0.21592
                ],
                [
                    0.0858,
                    -2.87804,
                    -0.37124
                ],
                [
                    -0.23917,
                    -0.2711,
                    -1.43481
                ]
            ],
            [
                [
                    -2.4279,
                    0.45062,
                    0.179
                ],
                [
                    0.40561,
                    -2.68095,
                    1.08108
                ],
                [
                    0.16956,
                    1.03786,
                    -1.95014
                ]
            ],
            [
                [
                    -2.14646,
                    -0.3474,
                    0.50411
                ],
                [
                    -0.23243,
                    -0.67054,
                    0.37458
                ],
                [
                    0.86487,
                    0.49252,
                    -2.38753
                ]
            ],
            [
                [
                    -2.38986,
                    0.00648,
                    -0.6202
                ],
                [
                    -0.20213,
                    -1.19025,
                    0.36776
                ],
                [
                    -0.57895,
                    0.46372,
                    -2.0908
                ]
            ],
            [
                [
                    -2.38979,
                    0.00656,
                    -0.62028
                ],
                [
                    -0.20214,
                    -1.19054,
                    0.36786
                ],
                [
                    -0.57895,
                    0.46423,
                    -2.09089
                ]
            ],
            [
                [
                    -2.428,
                    0.45063,
                    0.17905
                ],
                [
                    0.40558,
                    -2.68104,
                    1.0812
                ],
                [
                    0.16986,
                    1.03788,
                    -1.95008
                ]
            ],
            [
                [
                    -2.31451,
                    -0.15057,
                    0.55213
                ],
                [
                    -0.13246,
                    -1.16987,
                    -0.06794
                ],
                [
                    0.52693,
                    -0.25307,
                    -2.53325
                ]
            ],
            [
                [
                    -1.50545,
                    0.07484,
                    -0.31306
                ],
                [
                    -0.04276,
                    -0.83111,
                    -0.02574
                ],
                [
                    -0.1917,
                    0.13672,
                    -3.19078
                ]
            ],
            [
                [
                    -1.50558,
                    0.07476,
                    -0.31311
                ],
                [
                    -0.04272,
                    -0.83117,
                    -0.02563
                ],
                [
                    -0.19175,
                    0.13663,
                    -3.19107
                ]
            ],
            [
                [
                    -2.18308,
                    -0.48276,
                    0.82009
                ],
                [
                    -0.33969,
                    -1.88402,
                    -0.16678
                ],
                [
                    0.74928,
                    0.12552,
                    -1.97239
                ]
            ],
            [
                [
                    -1.71269,
                    0.285,
                    0.62951
                ],
                [
                    0.60045,
                    -2.22155,
                    -0.76451
                ],
                [
                    0.4973,
                    -0.50872,
                    -1.93176
                ]
            ],
            [
                [
                    -2.83725,
                    -0.28049,
                    -0.50383
                ],
                [
                    -0.35323,
                    -1.92779,
                    0.12014
                ],
                [
                    -0.34046,
                    0.14914,
                    -1.62929
                ]
            ],
            [
                [
                    -1.4749,
                    -0.33522,
                    -0.14801
                ],
                [
                    -0.30834,
                    -1.69525,
                    -0.24871
                ],
                [
                    0.07239,
                    -0.26623,
                    -2.9947
                ]
            ],
            [
                [
                    -2.31437,
                    -0.15065,
                    0.55217
                ],
                [
                    -0.13222,
                    -1.16985,
                    -0.06787
                ],
                [
                    0.52689,
                    -0.25285,
                    -2.53316
                ]
            ],
            [
                [
                    -1.71275,
                    0.28493,
                    0.62956
                ],
                [
                    0.60045,
                    -2.22147,
                    -0.76463
                ],
                [
                    0.49699,
                    -0.50875,
                    -1.93156
                ]
            ],
            [
                [
                    -2.18313,
                    -0.48279,
                    0.82013
                ],
                [
                    -0.33977,
                    -1.88404,
                    -0.16657
                ],
                [
                    0.7495,
                    0.12594,
                    -1.97264
                ]
            ],
            [
                [
                    -2.8373,
                    -0.28047,
                    -0.50379
                ],
                [
                    -0.35315,
                    -1.92798,
                    0.12017
                ],
                [
                    -0.34051,
                    0.14927,
                    -1.62939
                ]
            ],
            [
                [
                    -2.23911,
                    0.30928,
                    -0.21593
                ],
                [
                    0.08591,
                    -2.87778,
                    -0.37116
                ],
                [
                    -0.23918,
                    -0.27126,
                    -1.4347
                ]
            ],
            [
                [
                    -1.47486,
                    -0.3353,
                    -0.14804
                ],
                [
                    -0.30829,
                    -1.69507,
                    -0.24864
                ],
                [
                    0.07258,
                    -0.26599,
                    -2.99519
                ]
            ],
            [
                [
                    -2.14642,
                    -0.34745,
                    0.50404
                ],
                [
                    -0.23238,
                    -0.67071,
                    0.37451
                ],
                [
                    0.86474,
                    0.4925,
                    -2.38755
                ]
            ]
        ]
    },
    "band_gap": 3.5648,
    "is_direct": false,
    "formula": "SrBi2(B2O5)2"
}