{
    "mp_id": "mp-557293",
    "nelements": 4,
    "nsites": 32,
    "elements": [
        "Cd",
        "Li",
        "O",
        "Si"
    ],
    "structure": {
        "@module": "pymatgen.core.structure",
        "@class": "Structure",
        "charge": null,
        "lattice": {
            "matrix": [
                [
                    10.7486006,
                    0.0,
                    0.0
                ],
                [
                    0.0,
                    6.4708968,
                    0.0
                ],
                [
                    0.0,
                    0.0,
                    5.12820551
                ]
            ],
            "a": 10.7486006,
            "b": 6.4708968,
            "c": 5.12820551,
            "alpha": 90.0,
            "beta": 90.0,
            "gamma": 90.0,
            "volume": 356.6825148986937
        },
        "sites": [
            {
                "species": [
                    {
                        "element": "Li",
                        "occu": 1
                    }
                ],
                "abc": [
                    0.58783094,
                    0.00050027,
                    0.82610681
                ],
                "xyz": [
                    6.318359994382564,
                    0.003237195542136,
                    4.236445494890523
                ],
                "label": "Li",
                "properties": {}
            },
            {
                "species": [
                    {
                        "element": "Li",
                        "occu": 1
                    }
                ],
                "abc": [
                    0.91216906,
                    0.99949973,
                    0.32610681
                ],
                "xyz": [
                    9.804540905617435,
                    6.4676596044578645,
                    1.6723427398905233
                ],
                "label": "Li",
                "properties": {}
            },
            {
                "species": [
                    {
                        "element": "Li",
                        "occu": 1
                    }
                ],
                "abc": [
                    0.41216906,
                    0.50050027,
                    0.17389319
                ],
                "xyz": [
                    4.430240605617436,
                    3.238685595542136,
                    0.8917600151094769
                ],
                "label": "Li",
                "properties": {}
            },
            {
                "species": [
                    {
                        "element": "Li",
                        "occu": 1
                    }
                ],
                "abc": [
                    0.91216906,
                    0.50050027,
                    0.32610681
                ],
                "xyz": [
                    9.804540905617435,
                    3.238685595542136,
                    1.6723427398905233
                ],
                "label": "Li",
                "properties": {}
            },
            {
                "species": [
                    {
                        "element": "Li",
                        "occu": 1
                    }
                ],
                "abc": [
                    0.41216906,
                    0.99949973,
                    0.17389319
                ],
                "xyz": [
                    4.430240605617436,
                    6.4676596044578645,
                    0.8917600151094769
                ],
                "label": "Li",
                "properties": {}
            },
            {
                "species": [
                    {
                        "element": "Li",
                        "occu": 1
                    }
                ],
                "abc": [
                    0.58783094,
                    0.49949973,
                    0.82610681
                ],
                "xyz": [
                    6.318359994382564,
                    3.232211204457864,
                    4.236445494890523
                ],
                "label": "Li",
                "properties": {}
            },
            {
                "species": [
                    {
                        "element": "Li",
                        "occu": 1
                    }
                ],
                "abc": [
                    0.08783094,
                    0.00050027,
                    0.67389319
                ],
                "xyz": [
                    0.9440596943825639,
                    0.003237195542136,
                    3.455862770109477
                ],
                "label": "Li",
                "properties": {}
            },
            {
                "species": [
                    {
                        "element": "Li",
                        "occu": 1
                    }
                ],
                "abc": [
                    0.08783094,
                    0.49949973,
                    0.67389319
                ],
                "xyz": [
                    0.9440596943825639,
                    3.232211204457864,
                    3.455862770109477
                ],
                "label": "Li",
                "properties": {}
            },
            {
                "species": [
                    {
                        "element": "Cd",
                        "occu": 1
                    }
                ],
                "abc": [
                    0.33634996,
                    0.75,
                    0.67266941
                ],
                "xyz": [
                    3.6152913818659758,
                    4.853172600000001,
                    3.4495869747704493
                ],
                "label": "Cd",
                "properties": {}
            },
            {
                "species": [
                    {
                        "element": "Cd",
                        "occu": 1
                    }
                ],
                "abc": [
                    0.16365004,
                    0.25,
                    0.17266941
                ],
                "xyz": [
                    1.7590089181340238,
                    1.6177242,
                    0.8854842197704491
                ],
                "label": "Cd",
                "properties": {}
            },
            {
                "species": [
                    {
                        "element": "Cd",
                        "occu": 1
                    }
                ],
                "abc": [
                    0.83634996,
                    0.75,
                    0.82733059
                ],
                "xyz": [
                    8.989591681865974,
                    4.853172600000001,
                    4.242721290229551
                ],
                "label": "Cd",
                "properties": {}
            },
            {
                "species": [
                    {
                        "element": "Cd",
                        "occu": 1
                    }
                ],
                "abc": [
                    0.66365004,
                    0.25,
                    0.32733059
                ],
                "xyz": [
                    7.133309218134024,
                    1.6177242,
                    1.6786185352295508
                ],
                "label": "Cd",
                "properties": {}
            },
            {
                "species": [
                    {
                        "element": "Si",
                        "occu": 1
                    }
                ],
                "abc": [
                    0.34188001,
                    0.25,
                    0.66811986
                ],
                "xyz": [
                    3.674731680614006,
                    1.6177242,
                    3.426255947392429
                ],
                "label": "Si",
                "properties": {}
            },
            {
                "species": [
                    {
                        "element": "Si",
                        "occu": 1
                    }
                ],
                "abc": [
                    0.15811999,
                    0.75,
                    0.16811986
                ],
                "xyz": [
                    1.6995686193859938,
                    4.853172600000001,
                    0.8621531923924286
                ],
                "label": "Si",
                "properties": {}
            },
            {
                "species": [
                    {
                        "element": "Si",
                        "occu": 1
                    }
                ],
                "abc": [
                    0.84188001,
                    0.25,
                    0.83188014
                ],
                "xyz": [
                    9.049031980614005,
                    1.6177242,
                    4.2660523176075715
                ],
                "label": "Si",
                "properties": {}
            },
            {
                "species": [
                    {
                        "element": "Si",
                        "occu": 1
                    }
                ],
                "abc": [
                    0.65811999,
                    0.75,
                    0.33188014
                ],
                "xyz": [
                    7.073868919385994,
                    4.853172600000001,
                    1.7019495626075714
                ],
                "label": "Si",
                "properties": {}
            },
            {
                "species": [
                    {
                        "element": "O",
                        "occu": 1
                    }
                ],
                "abc": [
                    0.41085046,
                    0.0456261,
                    0.79310873
                ],
                "xyz": [
                    4.4160675008662755,
                    0.29524178448648003,
                    4.067224559215102
                ],
                "label": "O",
                "properties": {}
            },
            {
                "species": [
                    {
                        "element": "O",
                        "occu": 1
                    }
                ],
                "abc": [
                    0.91085046,
                    0.4543739,
                    0.70689127
                ],
                "xyz": [
                    9.790367800866276,
                    2.94020661551352,
                    3.6250837057848972
                ],
                "label": "O",
                "properties": {}
            },
            {
                "species": [
                    {
                        "element": "O",
                        "occu": 1
                    }
                ],
                "abc": [
                    0.85450289,
                    0.25,
                    0.1521075
                ],
                "xyz": [
                    9.184710276155734,
                    1.6177242,
                    0.7800385196123251
                ],
                "label": "O",
                "properties": {}
            },
            {
                "species": [
                    {
                        "element": "O",
                        "occu": 1
                    }
                ],
                "abc": [
                    0.19158862,
                    0.25,
                    0.7437258
                ],
                "xyz": [
                    2.059309555885172,
                    1.6177242,
                    3.813978745489158
                ],
                "label": "O",
                "properties": {}
            },
            {
                "species": [
                    {
                        "element": "O",
                        "occu": 1
                    }
                ],
                "abc": [
                    0.58914954,
                    0.5456261,
                    0.20689127
                ],
                "xyz": [
                    6.332533099133723,
                    3.53069018448648,
                    1.0609809507848975
                ],
                "label": "O",
                "properties": {}
            },
            {
                "species": [
                    {
                        "element": "O",
                        "occu": 1
                    }
                ],
                "abc": [
                    0.08914954,
                    0.9543739,
                    0.29310873
                ],
                "xyz": [
                    0.958232799133724,
                    6.17565501551352,
                    1.5031218042151022
                ],
                "label": "O",
                "properties": {}
            },
            {
                "species": [
                    {
                        "element": "O",
                        "occu": 1
                    }
                ],
                "abc": [
                    0.30841138,
                    0.75,
                    0.2437258
                ],
                "xyz": [
                    3.314990744114828,
                    4.853172600000001,
                    1.2498759904891579
                ],
                "label": "O",
                "properties": {}
            },
            {
                "species": [
                    {
                        "element": "O",
                        "occu": 1
                    }
                ],
                "abc": [
                    0.14549711,
                    0.75,
                    0.8478925
                ],
                "xyz": [
                    1.563890323844266,
                    4.853172600000001,
                    4.348166990387675
                ],
                "label": "O",
                "properties": {}
            },
            {
                "species": [
                    {
                        "element": "O",
                        "occu": 1
                    }
                ],
                "abc": [
                    0.41085046,
                    0.4543739,
                    0.79310873
                ],
                "xyz": [
                    4.4160675008662755,
                    2.94020661551352,
                    4.067224559215102
                ],
                "label": "O",
                "properties": {}
            },
            {
                "species": [
                    {
                        "element": "O",
                        "occu": 1
                    }
                ],
                "abc": [
                    0.80841138,
                    0.75,
                    0.2562742
                ],
                "xyz": [
                    8.689291044114828,
                    4.853172600000001,
                    1.314226764510842
                ],
                "label": "O",
                "properties": {}
            },
            {
                "species": [
                    {
                        "element": "O",
                        "occu": 1
                    }
                ],
                "abc": [
                    0.35450289,
                    0.25,
                    0.3478925
                ],
                "xyz": [
                    3.810409976155734,
                    1.6177242,
                    1.784064235387675
                ],
                "label": "O",
                "properties": {}
            },
            {
                "species": [
                    {
                        "element": "O",
                        "occu": 1
                    }
                ],
                "abc": [
                    0.58914954,
                    0.9543739,
                    0.20689127
                ],
                "xyz": [
                    6.332533099133723,
                    6.17565501551352,
                    1.0609809507848975
                ],
                "label": "O",
                "properties": {}
            },
            {
                "species": [
                    {
                        "element": "O",
                        "occu": 1
                    }
                ],
                "abc": [
                    0.69158862,
                    0.25,
                    0.7562742
                ],
                "xyz": [
                    7.433609855885171,
                    1.6177242,
                    3.878329519510842
                ],
                "label": "O",
                "properties": {}
            },
            {
                "species": [
                    {
                        "element": "O",
                        "occu": 1
                    }
                ],
                "abc": [
                    0.08914954,
                    0.5456261,
                    0.29310873
                ],
                "xyz": [
                    0.958232799133724,
                    3.53069018448648,
                    1.5031218042151022
                ],
                "label": "O",
                "properties": {}
            },
            {
                "species": [
                    {
                        "element": "O",
                        "occu": 1
                    }
                ],
                "abc": [
                    0.91085046,
                    0.0456261,
                    0.70689127
                ],
                "xyz": [
                    9.790367800866276,
                    0.29524178448648003,
                    3.6250837057848972
                ],
                "label": "O",
                "properties": {}
            },
            {
                "species": [
                    {
                        "element": "O",
                        "occu": 1
                    }
                ],
                "abc": [
                    0.64549711,
                    0.75,
                    0.6521075
                ],
                "xyz": [
                    6.938190623844266,
                    4.853172600000001,
                    3.344141274612325
                ],
                "label": "O",
                "properties": {}
            }
        ]
    },
    "spacegroup": {
        "source": "spglib",
        "symbol": "Pnma",
        "number": 62,
        "point_group": "mmm",
        "crystal_system": "orthorhombic",
        "hall": "-P 2ac 2n"
    },
    "dielectric": {
        "epsilon_ionic": [
            [
                3.65726849,
                -0.0,
                3e-08
            ],
            [
                -0.0,
                3.52970014,
                -3e-08
            ],
            [
                3e-08,
                -3e-08,
                4.6742806
            ]
        ],
        "epsilon_ionic_avg": 3.953749743333333,
        "epsilon_ionic_eig": [
            3.657268489999999,
            4.674280600000001,
            3.529700139999999
        ],
        "epsilon_electronic": [
            [
                3.04058111,
                0.0,
                0.0
            ],
            [
                0.0,
                3.33707374,
                -0.0
            ],
            [
                0.0,
                -0.0,
                3.27528009
            ]
        ],
        "epsilon_electronic_avg": 3.2176449800000007,
        "epsilon_electronic_eig": [
            3.04058111,
            3.33707374,
            3.27528009
        ]
    },
    "phonon": {
        "lowest_freq": -0.0685700453081618,
        "frequency": [
            -0.0685700453081618,
            -0.06293237148035868,
            -0.025569179028037393,
            2.0144182812306526,
            2.0490718679923234,
            2.109690947328889,
            2.283597900727231,
            2.460232762815398,
            2.500356311348387,
            2.5945248330232262,
            3.0836398828949787,
            3.157539595526357,
            3.782450558859843,
            4.542365836349192,
            4.728896270275061,
            4.76515540923227,
            4.8017736387628736,
            4.88792217356991,
            5.161589178500517,
            5.730424070634464,
            5.805474742488154,
            6.101715321651823,
            6.243307489209873,
            6.8010392093708205,
            7.08566555440066,
            7.480472653225252,
            7.6124435144000016,
            7.918880425213186,
            8.861335034368645,
            9.051598250498772,
            9.172682115403349,
            9.229219623744019,
            9.497921674493321,
            9.806631218938472,
            10.281558505445991,
            10.837789176646616,
            11.043569430285597,
            11.216055925438981,
            11.304284742071447,
            11.404838240051628,
            11.488757656720553,
            11.675883372721206,
            11.817273403251292,
            11.88201135225055,
            12.033203904354185,
            12.104657262492736,
            12.112201082968205,
            12.1444970524397,
            12.210132156053863,
            12.30536602820738,
            12.44871203888452,
            12.467434150293872,
            12.667946134243037,
            12.728019231477601,
            12.793188612024368,
            12.916820584434559,
            13.144183335709045,
            13.334359530872037,
            13.359632228026772,
            13.3695314745288,
            13.514409217499788,
            13.80540073860116,
            13.889636688620321,
            14.071208635121284,
            14.23462740236387,
            14.309453103394466,
            14.7604294629356,
            14.77119686825975,
            14.789964531411844,
            14.996049344640564,
            15.125035372497923,
            15.19936324227257,
            15.666494486574514,
            16.01260690599481,
            16.017684934389745,
            16.191791482999836,
            16.239755979491534,
            16.758432488422706,
            16.812606610844007,
            18.238519534519664,
            23.862267202932134,
            24.066969772782045,
            24.219452337063306,
            24.246253057529472,
            25.313177037489034,
            25.363644634132275,
            25.73099646845669,
            26.033622807430696,
            26.056535355748576,
            26.117947452362433,
            26.40308254445504,
            26.779740324154055,
            26.785019189934776,
            26.91165070532882,
            27.408593039726366,
            28.221148003727325
        ]
    },
    "born_effective_charge": {
        "avg_abs_trace": 1.7698612500000002,
        "tensors": [
            [
                [
                    1.1189,
                    -0.04764,
                    0.00691
                ],
                [
                    -0.00635,
                    0.95439,
                    0.00956
                ],
                [
                    -0.02044,
                    -0.01232,
                    1.05562
                ]
            ],
            [
                [
                    1.11889,
                    -0.04763,
                    -0.0069
                ],
                [
                    -0.00634,
                    0.95439,
                    -0.00958
                ],
                [
                    0.02044,
                    0.01232,
                    1.05562
                ]
            ],
            [
                [
                    1.11889,
                    0.04763,
                    0.0069
                ],
                [
                    0.00635,
                    0.95439,
                    -0.00956
                ],
                [
                    -0.02037,
                    0.01226,
                    1.05566
                ]
            ],
            [
                [
                    1.11889,
                    0.04763,
                    -0.0069
                ],
                [
                    0.00635,
                    0.95439,
                    0.00956
                ],
                [
                    0.02044,
                    -0.01232,
                    1.05562
                ]
            ],
            [
                [
                    1.11889,
                    -0.04763,
                    0.0069
                ],
                [
                    -0.00634,
                    0.95439,
                    0.00958
                ],
                [
                    -0.02037,
                    -0.01226,
                    1.05566
                ]
            ],
            [
                [
                    1.1189,
                    0.04764,
                    0.00691
                ],
                [
                    0.00634,
                    0.95439,
                    -0.00958
                ],
                [
                    -0.02044,
                    0.01232,
                    1.05562
                ]
            ],
            [
                [
                    1.1189,
                    -0.04764,
                    -0.00691
                ],
                [
                    -0.00635,
                    0.95439,
                    -0.00956
                ],
                [
                    0.02037,
                    0.01226,
                    1.05566
                ]
            ],
            [
                [
                    1.1189,
                    0.04764,
                    -0.00691
                ],
                [
                    0.00634,
                    0.95439,
                    0.00958
                ],
                [
                    0.02037,
                    -0.01226,
                    1.05566
                ]
            ],
            [
                [
                    1.90804,
                    0.0,
                    -0.00563
                ],
                [
                    0.00013,
                    2.36245,
                    6e-05
                ],
                [
                    -0.17764,
                    0.0,
                    2.29257
                ]
            ],
            [
                [
                    1.90797,
                    0.0,
                    0.00565
                ],
                [
                    -0.00013,
                    2.36245,
                    6e-05
                ],
                [
                    0.17764,
                    0.0,
                    2.29257
                ]
            ],
            [
                [
                    1.90804,
                    0.0,
                    0.00563
                ],
                [
                    0.00013,
                    2.36245,
                    -6e-05
                ],
                [
                    0.17773,
                    0.0,
                    2.29294
                ]
            ],
            [
                [
                    1.90797,
                    0.0,
                    -0.00565
                ],
                [
                    -0.00013,
                    2.36245,
                    -6e-05
                ],
                [
                    -0.17773,
                    0.0,
                    2.29294
                ]
            ],
            [
                [
                    2.41431,
                    0.0,
                    0.15636
                ],
                [
                    -0.00028,
                    3.20675,
                    -0.00028
                ],
                [
                    -0.51471,
                    0.0,
                    2.79631
                ]
            ],
            [
                [
                    2.4143,
                    0.0,
                    -0.1563
                ],
                [
                    0.00028,
                    3.20675,
                    -0.00028
                ],
                [
                    0.51471,
                    0.0,
                    2.79631
                ]
            ],
            [
                [
                    2.41431,
                    0.0,
                    -0.15636
                ],
                [
                    -0.00028,
                    3.20675,
                    0.00028
                ],
                [
                    0.5153,
                    0.0,
                    2.79611
                ]
            ],
            [
                [
                    2.4143,
                    0.0,
                    0.1563
                ],
                [
                    0.00028,
                    3.20675,
                    0.00028
                ],
                [
                    -0.5153,
                    0.0,
                    2.79611
                ]
            ],
            [
                [
                    -1.53726,
                    0.15098,
                    -0.20328
                ],
                [
                    0.24289,
                    -2.32689,
                    0.22728
                ],
                [
                    -0.0489,
                    0.15083,
                    -1.48827
                ]
            ],
            [
                [
                    -1.53726,
                    -0.15098,
                    0.20328
                ],
                [
                    -0.24278,
                    -2.32668,
                    0.22718
                ],
                [
                    0.04884,
                    0.15067,
                    -1.48847
                ]
            ],
            [
                [
                    -1.60786,
                    0.0,
                    0.15814
                ],
                [
                    5e-05,
                    -1.39574,
                    -6e-05
                ],
                [
                    0.0025,
                    0.0,
                    -2.28594
                ]
            ],
            [
                [
                    -1.87793,
                    0.0,
                    0.207
                ],
                [
                    0.00014,
                    -1.42869,
                    -0.0
                ],
                [
                    0.45267,
                    0.0,
                    -1.9379
                ]
            ],
            [
                [
                    -1.53716,
                    -0.15107,
                    -0.20332
                ],
                [
                    -0.24289,
                    -2.32689,
                    -0.22728
                ],
                [
                    -0.04884,
                    -0.15067,
                    -1.48847
                ]
            ],
            [
                [
                    -1.53716,
                    0.15107,
                    0.20332
                ],
                [
                    0.24278,
                    -2.32668,
                    -0.22718
                ],
                [
                    0.0489,
                    -0.15083,
                    -1.48827
                ]
            ],
            [
                [
                    -1.87772,
                    0.0,
                    -0.20705
                ],
                [
                    -0.00014,
                    -1.42869,
                    -0.0
                ],
                [
                    -0.45267,
                    0.0,
                    -1.9379
                ]
            ],
            [
                [
                    -1.60786,
                    0.0,
                    0.15813
                ],
                [
                    -5e-05,
                    -1.39574,
                    6e-05
                ],
                [
                    0.00244,
                    0.0,
                    -2.28528
                ]
            ],
            [
                [
                    -1.53726,
                    -0.15098,
                    -0.20328
                ],
                [
                    -0.24278,
                    -2.32668,
                    -0.22718
                ],
                [
                    -0.0489,
                    -0.15083,
                    -1.48827
                ]
            ],
            [
                [
                    -1.87772,
                    0.0,
                    0.20705
                ],
                [
                    -0.00014,
                    -1.42869,
                    0.0
                ],
                [
                    0.4532,
                    0.0,
                    -1.93788
                ]
            ],
            [
                [
                    -1.60786,
                    0.0,
                    -0.15814
                ],
                [
                    5e-05,
                    -1.39574,
                    6e-05
                ],
                [
                    -0.00244,
                    0.0,
                    -2.28528
                ]
            ],
            [
                [
                    -1.53716,
                    0.15107,
                    -0.20332
                ],
                [
                    0.24278,
                    -2.32668,
                    0.22718
                ],
                [
                    -0.04884,
                    0.15067,
                    -1.48847
                ]
            ],
            [
                [
                    -1.87793,
                    0.0,
                    -0.207
                ],
                [
                    0.00014,
                    -1.42869,
                    0.0
                ],
                [
                    -0.4532,
                    0.0,
                    -1.93788
                ]
            ],
            [
                [
                    -1.53716,
                    -0.15107,
                    0.20332
                ],
                [
                    -0.24289,
                    -2.32689,
                    0.22728
                ],
                [
                    0.0489,
                    0.15083,
                    -1.48827
                ]
            ],
            [
                [
                    -1.53726,
                    0.15098,
                    0.20328
                ],
                [
                    0.24289,
                    -2.32689,
                    -0.22728
                ],
                [
                    0.04884,
                    -0.15067,
                    -1.48847
                ]
            ],
            [
                [
                    -1.60786,
                    0.0,
                    -0.15813
                ],
                [
                    -5e-05,
                    -1.39574,
                    -6e-05
                ],
                [
                    -0.0025,
                    0.0,
                    -2.28594
                ]
            ]
        ]
    },
    "band_gap": 2.8949,
    "is_direct": false,
    "formula": "Li2CdSiO4"
}