{
    "mp_id": "mp-561538",
    "nelements": 4,
    "nsites": 32,
    "elements": [
        "Bi",
        "Mg",
        "O",
        "V"
    ],
    "structure": {
        "@module": "pymatgen.core.structure",
        "@class": "Structure",
        "charge": null,
        "lattice": {
            "matrix": [
                [
                    5.31608448,
                    0.0,
                    2.091e-05
                ],
                [
                    0.0,
                    11.56338921,
                    0.0
                ],
                [
                    -3.07816313,
                    0.0,
                    7.26131751
                ]
            ],
            "a": 5.316084480041123,
            "b": 11.56338921,
            "c": 7.8868130595268955,
            "alpha": 90.0,
            "beta": 112.97246870849514,
            "gamma": 90.0,
            "volume": 446.3681196108963
        },
        "sites": [
            {
                "species": [
                    {
                        "element": "Mg",
                        "occu": 1
                    }
                ],
                "abc": [
                    0.44930482,
                    0.92196202,
                    0.82423075
                ],
                "xyz": [
                    -0.14857432487105404,
                    10.661005674097805,
                    5.985010572219219
                ],
                "label": "Mg",
                "properties": {}
            },
            {
                "species": [
                    {
                        "element": "Mg",
                        "occu": 1
                    }
                ],
                "abc": [
                    0.55069518,
                    0.07803798,
                    0.17576925
                ],
                "xyz": [
                    2.3864956748710533,
                    0.9023835359021959,
                    1.2763278477807811
                ],
                "label": "Mg",
                "properties": {}
            },
            {
                "species": [
                    {
                        "element": "Mg",
                        "occu": 1
                    }
                ],
                "abc": [
                    0.55069518,
                    0.42196202,
                    0.67576925
                ],
                "xyz": [
                    0.8474141098710533,
                    4.879311069097804,
                    4.906986602780781
                ],
                "label": "Mg",
                "properties": {}
            },
            {
                "species": [
                    {
                        "element": "Mg",
                        "occu": 1
                    }
                ],
                "abc": [
                    0.44930482,
                    0.57803798,
                    0.32423075
                ],
                "xyz": [
                    1.3905072401289458,
                    6.684078140902195,
                    2.3543518172192184
                ],
                "label": "Mg",
                "properties": {}
            },
            {
                "species": [
                    {
                        "element": "V",
                        "occu": 1
                    }
                ],
                "abc": [
                    0.81202641,
                    0.6482023,
                    0.0283247
                ],
                "xyz": [
                    4.2296129483428055,
                    7.495415481717183,
                    0.20569161954773008
                ],
                "label": "V",
                "properties": {}
            },
            {
                "species": [
                    {
                        "element": "V",
                        "occu": 1
                    }
                ],
                "abc": [
                    0.18797359,
                    0.3517977,
                    0.9716753
                ],
                "xyz": [
                    -1.991691598342806,
                    4.0679737282828174,
                    7.05564680045227
                ],
                "label": "V",
                "properties": {}
            },
            {
                "species": [
                    {
                        "element": "V",
                        "occu": 1
                    }
                ],
                "abc": [
                    0.18797359,
                    0.1482023,
                    0.4716753
                ],
                "xyz": [
                    -0.45261003334280603,
                    1.7137208767171832,
                    3.42498804545227
                ],
                "label": "V",
                "properties": {}
            },
            {
                "species": [
                    {
                        "element": "V",
                        "occu": 1
                    }
                ],
                "abc": [
                    0.81202641,
                    0.8517977,
                    0.5283247
                ],
                "xyz": [
                    2.690531383342806,
                    9.849668333282818,
                    3.8363503745477296
                ],
                "label": "V",
                "properties": {}
            },
            {
                "species": [
                    {
                        "element": "Bi",
                        "occu": 1
                    }
                ],
                "abc": [
                    0.9369039,
                    0.09730221,
                    0.82284175
                ],
                "xyz": [
                    2.4478191453667946,
                    1.1251433252231542,
                    5.9749347978945915
                ],
                "label": "Bi",
                "properties": {}
            },
            {
                "species": [
                    {
                        "element": "Bi",
                        "occu": 1
                    }
                ],
                "abc": [
                    0.0630961,
                    0.90269779,
                    0.17715825
                ],
                "xyz": [
                    -0.20989779536679448,
                    10.438245884776848,
                    1.2864036221054083
                ],
                "label": "Bi",
                "properties": {}
            },
            {
                "species": [
                    {
                        "element": "Bi",
                        "occu": 1
                    }
                ],
                "abc": [
                    0.9369039,
                    0.40269779,
                    0.32284175
                ],
                "xyz": [
                    3.986900710366795,
                    4.6565512797768465,
                    2.3442760428945912
                ],
                "label": "Bi",
                "properties": {}
            },
            {
                "species": [
                    {
                        "element": "Bi",
                        "occu": 1
                    }
                ],
                "abc": [
                    0.0630961,
                    0.59730221,
                    0.67715825
                ],
                "xyz": [
                    -1.7489793603667945,
                    6.906837930223154,
                    4.917062377105408
                ],
                "label": "Bi",
                "properties": {}
            },
            {
                "species": [
                    {
                        "element": "O",
                        "occu": 1
                    }
                ],
                "abc": [
                    0.24921677,
                    0.07187309,
                    0.67325912
                ],
                "xyz": [
                    -0.747543996967516,
                    0.831096513395359,
                    4.888753447945851
                ],
                "label": "O",
                "properties": {}
            },
            {
                "species": [
                    {
                        "element": "O",
                        "occu": 1
                    }
                ],
                "abc": [
                    0.70192237,
                    0.93192918,
                    0.67378084
                ],
                "xyz": [
                    1.6574712779333884,
                    10.77625982449615,
                    4.892551288591265
                ],
                "label": "O",
                "properties": {}
            },
            {
                "species": [
                    {
                        "element": "O",
                        "occu": 1
                    }
                ],
                "abc": [
                    0.84719102,
                    0.17595495,
                    0.36351081
                ],
                "xyz": [
                    3.3847934603189342,
                    2.0346355702760897,
                    2.6395851244915116
                ],
                "label": "O",
                "properties": {}
            },
            {
                "species": [
                    {
                        "element": "O",
                        "occu": 1
                    }
                ],
                "abc": [
                    0.24004081,
                    0.52706945,
                    0.48472771
                ],
                "xyz": [
                    -0.21599374040370356,
                    6.094709191050636,
                    3.5197668274585387
                ],
                "label": "O",
                "properties": {}
            },
            {
                "species": [
                    {
                        "element": "O",
                        "occu": 1
                    }
                ],
                "abc": [
                    0.3248649,
                    0.28652431,
                    0.51463313
                ],
                "xyz": [
                    0.1428845267442551,
                    3.313192114656695,
                    3.736921351020165
                ],
                "label": "O",
                "properties": {}
            },
            {
                "species": [
                    {
                        "element": "O",
                        "occu": 1
                    }
                ],
                "abc": [
                    0.3248649,
                    0.21347569,
                    0.01463313
                ],
                "xyz": [
                    1.6819660917442552,
                    2.468502490343305,
                    0.10626259602016529
                ],
                "label": "O",
                "properties": {}
            },
            {
                "species": [
                    {
                        "element": "O",
                        "occu": 1
                    }
                ],
                "abc": [
                    0.70192237,
                    0.56807082,
                    0.17378084
                ],
                "xyz": [
                    3.1965528429333885,
                    6.568823990503852,
                    1.261892533591265
                ],
                "label": "O",
                "properties": {}
            },
            {
                "species": [
                    {
                        "element": "O",
                        "occu": 1
                    }
                ],
                "abc": [
                    0.29807763,
                    0.43192918,
                    0.82621916
                ],
                "xyz": [
                    -0.9586314929333886,
                    4.994565219496148,
                    5.9994458864087346
                ],
                "label": "O",
                "properties": {}
            },
            {
                "species": [
                    {
                        "element": "O",
                        "occu": 1
                    }
                ],
                "abc": [
                    0.75995919,
                    0.47293055,
                    0.51527229
                ],
                "xyz": [
                    2.4539150904037035,
                    5.468680018949366,
                    3.7415715925414603
                ],
                "label": "O",
                "properties": {}
            },
            {
                "species": [
                    {
                        "element": "O",
                        "occu": 1
                    }
                ],
                "abc": [
                    0.75078323,
                    0.57187309,
                    0.82674088
                ],
                "xyz": [
                    1.4463837819675156,
                    6.612791118395359,
                    6.003243727054148
                ],
                "label": "O",
                "properties": {}
            },
            {
                "species": [
                    {
                        "element": "O",
                        "occu": 1
                    }
                ],
                "abc": [
                    0.6751351,
                    0.71347569,
                    0.48536687
                ],
                "xyz": [
                    2.095036823255745,
                    8.250197095343305,
                    3.5244170689798344
                ],
                "label": "O",
                "properties": {}
            },
            {
                "species": [
                    {
                        "element": "O",
                        "occu": 1
                    }
                ],
                "abc": [
                    0.75078323,
                    0.92812691,
                    0.32674088
                ],
                "xyz": [
                    2.9854653469675156,
                    10.732292696604642,
                    2.372584972054148
                ],
                "label": "O",
                "properties": {}
            },
            {
                "species": [
                    {
                        "element": "O",
                        "occu": 1
                    }
                ],
                "abc": [
                    0.24921677,
                    0.42812691,
                    0.17325912
                ],
                "xyz": [
                    0.791537568032484,
                    4.9505980916046415,
                    1.2580946929458519
                ],
                "label": "O",
                "properties": {}
            },
            {
                "species": [
                    {
                        "element": "O",
                        "occu": 1
                    }
                ],
                "abc": [
                    0.6751351,
                    0.78652431,
                    0.98536687
                ],
                "xyz": [
                    0.5559552582557448,
                    9.094886719656696,
                    7.155075823979835
                ],
                "label": "O",
                "properties": {}
            },
            {
                "species": [
                    {
                        "element": "O",
                        "occu": 1
                    }
                ],
                "abc": [
                    0.75995919,
                    0.02706945,
                    0.01527229
                ],
                "xyz": [
                    3.9929966554037035,
                    0.3130145860506345,
                    0.11091283754146081
                ],
                "label": "O",
                "properties": {}
            },
            {
                "species": [
                    {
                        "element": "O",
                        "occu": 1
                    }
                ],
                "abc": [
                    0.24004081,
                    0.97293055,
                    0.98472771
                ],
                "xyz": [
                    -1.755075305403704,
                    11.250374623949366,
                    7.150425582458539
                ],
                "label": "O",
                "properties": {}
            },
            {
                "species": [
                    {
                        "element": "O",
                        "occu": 1
                    }
                ],
                "abc": [
                    0.15280898,
                    0.82404505,
                    0.63648919
                ],
                "xyz": [
                    -1.1468721103189345,
                    9.52875363972391,
                    4.621753295508489
                ],
                "label": "O",
                "properties": {}
            },
            {
                "species": [
                    {
                        "element": "O",
                        "occu": 1
                    }
                ],
                "abc": [
                    0.29807763,
                    0.06807082,
                    0.32621916
                ],
                "xyz": [
                    0.5804500720666115,
                    0.7871293855038523,
                    2.3687871314087348
                ],
                "label": "O",
                "properties": {}
            },
            {
                "species": [
                    {
                        "element": "O",
                        "occu": 1
                    }
                ],
                "abc": [
                    0.15280898,
                    0.67595495,
                    0.13648919
                ],
                "xyz": [
                    0.3922094546810657,
                    7.81633017527609,
                    0.9910945405084887
                ],
                "label": "O",
                "properties": {}
            },
            {
                "species": [
                    {
                        "element": "O",
                        "occu": 1
                    }
                ],
                "abc": [
                    0.84719102,
                    0.32404505,
                    0.86351081
                ],
                "xyz": [
                    1.8457118953189342,
                    3.7470590347239106,
                    6.2702438794915105
                ],
                "label": "O",
                "properties": {}
            }
        ]
    },
    "spacegroup": {
        "source": "spglib",
        "symbol": "P2_1/c",
        "number": 14,
        "point_group": "2/m",
        "crystal_system": "monoclinic",
        "hall": "-P 2ybc"
    },
    "dielectric": {
        "epsilon_ionic": [
            [
                6.14484433,
                0.0,
                -2.29392897
            ],
            [
                0.0,
                14.24883436,
                2e-08
            ],
            [
                -2.29392897,
                2e-08,
                9.05848241
            ]
        ],
        "epsilon_ionic_avg": 9.817387033333333,
        "epsilon_ionic_eig": [
            4.8842322605306565,
            10.319094479469342,
            14.24883436
        ],
        "epsilon_electronic": [
            [
                3.88275708,
                0.0,
                -0.3672815
            ],
            [
                0.0,
                4.98442363,
                0.0
            ],
            [
                -0.3672742,
                0.0,
                4.55709449
            ]
        ],
        "epsilon_electronic_avg": 4.4747584,
        "epsilon_electronic_eig": [
            3.7213520645546914,
            4.718499505445309,
            4.98442363
        ]
    },
    "phonon": {
        "lowest_freq": -0.03571466844534371,
        "frequency": [
            -0.03571466844534371,
            -0.034165715616086854,
            -0.027978015263572752,
            1.2987701148325959,
            1.8510511597845816,
            2.247602204470084,
            2.399339062905521,
            2.507667295992079,
            2.6062222202198266,
            2.7568522996732887,
            2.9777218198530093,
            3.163928285697035,
            3.453650629374275,
            3.5421379242284896,
            3.6549230650714275,
            3.8580172008234865,
            3.9019576053316913,
            4.16161085010656,
            4.177715414939545,
            4.215283572185547,
            4.343544887495468,
            4.367915852373231,
            4.672063690653024,
            5.1971560879130445,
            5.28244888539212,
            5.558671860208363,
            5.624645652822802,
            5.630726509201319,
            5.995398262474318,
            6.183081499671957,
            6.250817172664577,
            6.485645994902316,
            6.517711039483415,
            6.788732727885726,
            6.819925981602411,
            7.2889607434974755,
            7.8718842462885785,
            7.943568807872979,
            8.036243945984056,
            8.213494259436494,
            8.401877984793108,
            8.604230503225153,
            8.830900605769637,
            8.924087855478035,
            8.960879959832955,
            8.962979507595227,
            9.061138279143046,
            9.118560892328889,
            9.14107470275627,
            9.311484851316099,
            9.492784829666817,
            9.679742334868514,
            9.72530050949776,
            10.247570564660975,
            10.269282319366095,
            10.316566576796367,
            10.372457922926385,
            10.47428932168751,
            10.518456207761623,
            10.830807429665024,
            10.849329010220675,
            10.877043314440037,
            10.948467433009379,
            11.232822383558508,
            11.423968790196728,
            11.496463507553079,
            11.53614461790291,
            11.561169477573907,
            12.648509075613397,
            12.769348148481203,
            12.873991449604436,
            12.949789928236594,
            13.558761175289243,
            13.722578863558072,
            13.930074033270559,
            13.986970200916526,
            15.17101984781715,
            15.853052394535473,
            17.257322165924,
            17.288243847334726,
            22.79594846016089,
            23.074835042908873,
            23.256889010725544,
            23.634995375826993,
            23.767002131362627,
            24.170179855623022,
            24.229195876155824,
            24.41462713685318,
            24.41648464567213,
            24.501653788606365,
            24.523553991501263,
            25.142260553935685,
            25.29409367492613,
            25.355076535890518,
            25.776594716810287,
            26.745737663306937
        ]
    },
    "born_effective_charge": {
        "avg_abs_trace": 2.560063333333334,
        "tensors": [
            [
                [
                    2.90541,
                    -0.0088,
                    0.25359
                ],
                [
                    -0.46788,
                    2.23835,
                    -0.25019
                ],
                [
                    0.11628,
                    -0.16467,
                    2.46703
                ]
            ],
            [
                [
                    2.90539,
                    -0.00876,
                    0.25362
                ],
                [
                    -0.46788,
                    2.23833,
                    -0.25018
                ],
                [
                    0.11631,
                    -0.16475,
                    2.467
                ]
            ],
            [
                [
                    2.90539,
                    0.00876,
                    0.25362
                ],
                [
                    0.46788,
                    2.23835,
                    0.25019
                ],
                [
                    0.11631,
                    0.16475,
                    2.467
                ]
            ],
            [
                [
                    2.90541,
                    0.0088,
                    0.25359
                ],
                [
                    0.46788,
                    2.23833,
                    0.25018
                ],
                [
                    0.11628,
                    0.16467,
                    2.46703
                ]
            ],
            [
                [
                    2.55693,
                    0.00401,
                    -0.49815
                ],
                [
                    0.52695,
                    4.21549,
                    -0.27009
                ],
                [
                    -0.63204,
                    0.28017,
                    3.75869
                ]
            ],
            [
                [
                    2.55699,
                    0.00417,
                    -0.49792
                ],
                [
                    0.52689,
                    4.21559,
                    -0.27009
                ],
                [
                    -0.63218,
                    0.28047,
                    3.75855
                ]
            ],
            [
                [
                    2.55699,
                    -0.00417,
                    -0.49792
                ],
                [
                    -0.52695,
                    4.21549,
                    0.27009
                ],
                [
                    -0.63218,
                    -0.28047,
                    3.75855
                ]
            ],
            [
                [
                    2.55693,
                    -0.00401,
                    -0.49815
                ],
                [
                    -0.52689,
                    4.21559,
                    0.27009
                ],
                [
                    -0.63204,
                    -0.28017,
                    3.75869
                ]
            ],
            [
                [
                    3.2666,
                    0.37469,
                    -0.84066
                ],
                [
                    1.45557,
                    5.15672,
                    0.41627
                ],
                [
                    -0.6184,
                    0.51818,
                    4.15556
                ]
            ],
            [
                [
                    3.26671,
                    0.37472,
                    -0.84069
                ],
                [
                    1.45563,
                    5.15672,
                    0.41624
                ],
                [
                    -0.61824,
                    0.51821,
                    4.15546
                ]
            ],
            [
                [
                    3.2666,
                    -0.37469,
                    -0.84066
                ],
                [
                    -1.45563,
                    5.15672,
                    -0.41624
                ],
                [
                    -0.6184,
                    -0.51818,
                    4.15556
                ]
            ],
            [
                [
                    3.26671,
                    -0.37472,
                    -0.84069
                ],
                [
                    -1.45557,
                    5.15672,
                    -0.41627
                ],
                [
                    -0.61824,
                    -0.51821,
                    4.15546
                ]
            ],
            [
                [
                    -1.84032,
                    -0.2502,
                    0.85144
                ],
                [
                    -0.35115,
                    -1.52893,
                    1.21691
                ],
                [
                    1.16071,
                    1.25122,
                    -3.23287
                ]
            ],
            [
                [
                    -1.72706,
                    0.52496,
                    0.77233
                ],
                [
                    0.74108,
                    -2.72727,
                    -1.57998
                ],
                [
                    0.75924,
                    -1.68633,
                    -2.28994
                ]
            ],
            [
                [
                    -1.83547,
                    -0.03477,
                    -0.74048
                ],
                [
                    0.54591,
                    -1.45994,
                    0.46401
                ],
                [
                    -0.80357,
                    0.14967,
                    -1.15983
                ]
            ],
            [
                [
                    -2.13958,
                    0.19821,
                    0.61339
                ],
                [
                    -0.0281,
                    -2.04483,
                    -0.77628
                ],
                [
                    0.39133,
                    -0.91303,
                    -2.57252
                ]
            ],
            [
                [
                    -1.18682,
                    -0.37463,
                    -0.41147
                ],
                [
                    -0.36576,
                    -3.84955,
                    -0.15765
                ],
                [
                    -0.37365,
                    0.09578,
                    -1.12619
                ]
            ],
            [
                [
                    -1.18682,
                    0.37463,
                    -0.41147
                ],
                [
                    0.36576,
                    -3.84965,
                    0.15762
                ],
                [
                    -0.37365,
                    -0.09578,
                    -1.12619
                ]
            ],
            [
                [
                    -1.72706,
                    -0.52496,
                    0.77233
                ],
                [
                    -0.74117,
                    -2.72719,
                    1.58009
                ],
                [
                    0.75924,
                    1.68633,
                    -2.28994
                ]
            ],
            [
                [
                    -1.7268,
                    -0.52487,
                    0.77205
                ],
                [
                    -0.74108,
                    -2.72727,
                    1.57998
                ],
                [
                    0.75916,
                    1.68602,
                    -2.28984
                ]
            ],
            [
                [
                    -2.13933,
                    0.19827,
                    0.61322
                ],
                [
                    -0.02792,
                    -2.04474,
                    -0.77642
                ],
                [
                    0.39148,
                    -0.91322,
                    -2.57248
                ]
            ],
            [
                [
                    -1.84024,
                    0.25043,
                    0.85202
                ],
                [
                    0.35115,
                    -1.52893,
                    -1.21691
                ],
                [
                    1.16056,
                    -1.25091,
                    -3.23274
                ]
            ],
            [
                [
                    -1.18698,
                    -0.37475,
                    -0.4117
                ],
                [
                    -0.36576,
                    -3.84965,
                    -0.15762
                ],
                [
                    -0.37349,
                    0.09543,
                    -1.12596
                ]
            ],
            [
                [
                    -1.84024,
                    -0.25043,
                    0.85202
                ],
                [
                    -0.35107,
                    -1.52897,
                    1.217
                ],
                [
                    1.16056,
                    1.25091,
                    -3.23274
                ]
            ],
            [
                [
                    -1.84032,
                    0.2502,
                    0.85144
                ],
                [
                    0.35107,
                    -1.52897,
                    -1.217
                ],
                [
                    1.16071,
                    -1.25122,
                    -3.23287
                ]
            ],
            [
                [
                    -1.18698,
                    0.37475,
                    -0.4117
                ],
                [
                    0.36576,
                    -3.84955,
                    0.15765
                ],
                [
                    -0.37349,
                    -0.09543,
                    -1.12596
                ]
            ],
            [
                [
                    -2.13933,
                    -0.19827,
                    0.61322
                ],
                [
                    0.0281,
                    -2.04483,
                    0.77628
                ],
                [
                    0.39148,
                    0.91322,
                    -2.57248
                ]
            ],
            [
                [
                    -2.13958,
                    -0.19821,
                    0.61339
                ],
                [
                    0.02792,
                    -2.04474,
                    0.77642
                ],
                [
                    0.39133,
                    0.91303,
                    -2.57252
                ]
            ],
            [
                [
                    -1.83542,
                    -0.03475,
                    -0.74058
                ],
                [
                    0.54642,
                    -1.46014,
                    0.46411
                ],
                [
                    -0.8035,
                    0.14967,
                    -1.15992
                ]
            ],
            [
                [
                    -1.7268,
                    0.52487,
                    0.77205
                ],
                [
                    0.74117,
                    -2.72719,
                    -1.58009
                ],
                [
                    0.75916,
                    -1.68602,
                    -2.28984
                ]
            ],
            [
                [
                    -1.83542,
                    0.03475,
                    -0.74058
                ],
                [
                    -0.54591,
                    -1.45994,
                    -0.46401
                ],
                [
                    -0.8035,
                    -0.14967,
                    -1.15992
                ]
            ],
            [
                [
                    -1.83547,
                    0.03477,
                    -0.74048
                ],
                [
                    -0.54642,
                    -1.46014,
                    -0.46411
                ],
                [
                    -0.80357,
                    -0.14967,
                    -1.15983
                ]
            ]
        ]
    },
    "band_gap": 3.1186,
    "is_direct": false,
    "formula": "MgVBiO5"
}