{
    "mp_id": "mp-545359",
    "nelements": 4,
    "nsites": 6,
    "elements": [
        "Cu",
        "K",
        "Na",
        "O"
    ],
    "structure": {
        "@module": "pymatgen.core.structure",
        "@class": "Structure",
        "charge": null,
        "lattice": {
            "matrix": [
                [
                    -2.15876062,
                    2.15876062,
                    5.28446864
                ],
                [
                    2.15876062,
                    -2.15876062,
                    5.28446864
                ],
                [
                    2.15876062,
                    2.15876062,
                    -5.28446864
                ]
            ],
            "a": 6.102958596948616,
            "b": 6.102958596948616,
            "c": 6.102958596948616,
            "alpha": 138.5695232217606,
            "beta": 138.5695232217606,
            "gamma": 60.031857494354384,
            "volume": 98.50772526547864
        },
        "sites": [
            {
                "species": [
                    {
                        "element": "K",
                        "occu": 1
                    }
                ],
                "abc": [
                    0.56441904,
                    0.56441904,
                    0.0
                ],
                "xyz": [
                    0.0,
                    0.0,
                    5.965309433397811
                ],
                "label": "K",
                "properties": {}
            },
            {
                "species": [
                    {
                        "element": "Na",
                        "occu": 1
                    }
                ],
                "abc": [
                    0.77167659,
                    0.27167659,
                    0.5
                ],
                "xyz": [
                    0.0,
                    2.15876062,
                    2.8713328401542757
                ],
                "label": "Na",
                "properties": {}
            },
            {
                "species": [
                    {
                        "element": "Na",
                        "occu": 1
                    }
                ],
                "abc": [
                    0.27167659,
                    0.77167659,
                    0.5
                ],
                "xyz": [
                    2.15876062,
                    0.0,
                    2.8713328401542757
                ],
                "label": "Na",
                "properties": {}
            },
            {
                "species": [
                    {
                        "element": "Cu",
                        "occu": 1
                    }
                ],
                "abc": [
                    0.99876296,
                    0.99876296,
                    0.0
                ],
                "xyz": [
                    0.0,
                    0.0,
                    10.555863081827148
                ],
                "label": "Cu",
                "properties": {}
            },
            {
                "species": [
                    {
                        "element": "O",
                        "occu": 1
                    }
                ],
                "abc": [
                    0.1673034,
                    0.1673034,
                    0.0
                ],
                "xyz": [
                    0.0,
                    0.0,
                    1.768219141330752
                ],
                "label": "O",
                "properties": {}
            },
            {
                "species": [
                    {
                        "element": "O",
                        "occu": 1
                    }
                ],
                "abc": [
                    0.83110143,
                    0.83110143,
                    0.0
                ],
                "xyz": [
                    0.0,
                    0.0,
                    8.78385888698831
                ],
                "label": "O",
                "properties": {}
            }
        ]
    },
    "spacegroup": {
        "source": "spglib",
        "symbol": "I4mm",
        "number": 107,
        "point_group": "4mm",
        "crystal_system": "tetragonal",
        "hall": "I 4 -2"
    },
    "dielectric": {
        "epsilon_ionic": [
            [
                4.20860169,
                2e-08,
                -0.00036107
            ],
            [
                2e-08,
                4.20956677,
                -0.00029523
            ],
            [
                -0.00036107,
                -0.00029523,
                7.85613123
            ]
        ],
        "epsilon_ionic_avg": 5.424766563333335,
        "epsilon_ionic_eig": [
            7.856131289644578,
            4.208601654257493,
            4.209566746097931
        ],
        "epsilon_electronic": [
            [
                3.18101123,
                0.0,
                0.0
            ],
            [
                0.0,
                3.18101123,
                -0.0
            ],
            [
                0.0,
                0.0,
                3.32880962
            ]
        ],
        "epsilon_electronic_avg": 3.23027736,
        "epsilon_electronic_eig": [
            3.18101123,
            3.18101123,
            3.32880962
        ]
    },
    "phonon": {
        "lowest_freq": -0.04599444099251905,
        "frequency": [
            -0.04599444099251905,
            -0.0406027644922645,
            -0.0406027644922645,
            2.892543497219943,
            2.949711273631329,
            2.949711273631329,
            4.6438484656902475,
            4.6438484656902475,
            4.763293225884177,
            6.324570369789305,
            6.324570369789305,
            6.593529018056402,
            6.593529018056402,
            6.741474069550868,
            11.341276626107549,
            11.341276626107549,
            17.981798275002586,
            18.745062245106293
        ]
    },
    "born_effective_charge": {
        "avg_abs_trace": 1.0252077777777777,
        "tensors": [
            [
                [
                    1.09588,
                    0.0,
                    -3e-05
                ],
                [
                    -0.0,
                    1.09609,
                    -3e-05
                ],
                [
                    -0.0,
                    -0.0,
                    1.1148
                ]
            ],
            [
                [
                    0.96807,
                    0.0,
                    -8e-05
                ],
                [
                    -0.0,
                    0.91632,
                    -5e-05
                ],
                [
                    -0.0,
                    -0.0,
                    1.00659
                ]
            ],
            [
                [
                    0.91633,
                    0.0,
                    -7e-05
                ],
                [
                    -0.0,
                    0.96816,
                    -5e-05
                ],
                [
                    -0.0,
                    -0.0,
                    1.00659
                ]
            ],
            [
                [
                    -0.69092,
                    0.0,
                    -5e-05
                ],
                [
                    -0.0,
                    -0.69116,
                    -3e-05
                ],
                [
                    -0.0,
                    -0.0,
                    1.52012
                ]
            ],
            [
                [
                    -1.2636,
                    0.0,
                    0.00021
                ],
                [
                    -0.0,
                    -1.26369,
                    0.0002
                ],
                [
                    0.0,
                    0.0,
                    -2.19784
                ]
            ],
            [
                [
                    -1.02575,
                    -0.0,
                    0.0
                ],
                [
                    0.0,
                    -1.02572,
                    -4e-05
                ],
                [
                    0.0,
                    0.0,
                    -2.45027
                ]
            ]
        ]
    },
    "band_gap": 1.9284,
    "is_direct": false,
    "formula": "KNa2CuO2"
}