{
    "mp_id": "mp-555812",
    "nelements": 4,
    "nsites": 22,
    "elements": [
        "Bi",
        "Na",
        "O",
        "Sr"
    ],
    "structure": {
        "@module": "pymatgen.core.structure",
        "@class": "Structure",
        "charge": null,
        "lattice": {
            "matrix": [
                [
                    4.9650939,
                    2.86659824,
                    3.90375239
                ],
                [
                    -4.9650939,
                    2.86659824,
                    3.90375239
                ],
                [
                    0.0,
                    -5.73319648,
                    3.90375239
                ]
            ],
            "a": 6.936052596961692,
            "b": 6.936052596961692,
            "c": 6.936052522920736,
            "alpha": 91.42392753436425,
            "beta": 91.42392753436425,
            "gamma": 91.4239287427805,
            "volume": 333.37099379558845
        },
        "sites": [
            {
                "species": [
                    {
                        "element": "Na",
                        "occu": 1
                    }
                ],
                "abc": [
                    0.25,
                    0.25,
                    0.25
                ],
                "xyz": [
                    0.0,
                    0.0,
                    2.9278142925
                ],
                "label": "Na",
                "properties": {}
            },
            {
                "species": [
                    {
                        "element": "Na",
                        "occu": 1
                    }
                ],
                "abc": [
                    0.75,
                    0.75,
                    0.75
                ],
                "xyz": [
                    0.0,
                    0.0,
                    8.7834428775
                ],
                "label": "Na",
                "properties": {}
            },
            {
                "species": [
                    {
                        "element": "Sr",
                        "occu": 1
                    }
                ],
                "abc": [
                    0.75,
                    0.39941772,
                    0.10058228
                ],
                "xyz": [
                    1.7406739398760924,
                    2.718260839530439,
                    4.8796904875
                ],
                "label": "Sr",
                "properties": {}
            },
            {
                "species": [
                    {
                        "element": "Sr",
                        "occu": 1
                    }
                ],
                "abc": [
                    0.89941772,
                    0.25,
                    0.60058228
                ],
                "xyz": [
                    3.2244199601239085,
                    -0.14833740046956168,
                    6.8315666825
                ],
                "label": "Sr",
                "properties": {}
            },
            {
                "species": [
                    {
                        "element": "Sr",
                        "occu": 1
                    }
                ],
                "abc": [
                    0.10058228,
                    0.75,
                    0.39941772
                ],
                "xyz": [
                    -3.2244199601239085,
                    0.14833740046956168,
                    4.8796904875
                ],
                "label": "Sr",
                "properties": {}
            },
            {
                "species": [
                    {
                        "element": "Sr",
                        "occu": 1
                    }
                ],
                "abc": [
                    0.25,
                    0.60058228,
                    0.89941772
                ],
                "xyz": [
                    -1.7406739398760924,
                    -2.718260839530439,
                    6.8315666825
                ],
                "label": "Sr",
                "properties": {}
            },
            {
                "species": [
                    {
                        "element": "Sr",
                        "occu": 1
                    }
                ],
                "abc": [
                    0.39941772,
                    0.10058228,
                    0.75
                ],
                "xyz": [
                    1.4837460202478159,
                    -2.86659824,
                    4.8796904875
                ],
                "label": "Sr",
                "properties": {}
            },
            {
                "species": [
                    {
                        "element": "Sr",
                        "occu": 1
                    }
                ],
                "abc": [
                    0.60058228,
                    0.89941772,
                    0.25
                ],
                "xyz": [
                    -1.4837460202478159,
                    2.86659824,
                    6.8315666825
                ],
                "label": "Sr",
                "properties": {}
            },
            {
                "species": [
                    {
                        "element": "Bi",
                        "occu": 1
                    }
                ],
                "abc": [
                    0.0,
                    0.0,
                    0.0
                ],
                "xyz": [
                    0.0,
                    0.0,
                    0.0
                ],
                "label": "Bi",
                "properties": {}
            },
            {
                "species": [
                    {
                        "element": "Bi",
                        "occu": 1
                    }
                ],
                "abc": [
                    0.5,
                    0.5,
                    0.5
                ],
                "xyz": [
                    0.0,
                    0.0,
                    5.855628585
                ],
                "label": "Bi",
                "properties": {}
            },
            {
                "species": [
                    {
                        "element": "O",
                        "occu": 1
                    }
                ],
                "abc": [
                    0.57349141,
                    0.44586856,
                    0.79294887
                ],
                "xyz": [
                    0.6336594340356152,
                    -1.6240361743755245,
                    7.074804965568129
                ],
                "label": "O",
                "properties": {}
            },
            {
                "species": [
                    {
                        "element": "O",
                        "occu": 1
                    }
                ],
                "abc": [
                    0.79294887,
                    0.57349141,
                    0.44586856
                ],
                "xyz": [
                    1.0896268959554942,
                    1.3607832429784383,
                    7.074804965568128
                ],
                "label": "O",
                "properties": {}
            },
            {
                "species": [
                    {
                        "element": "O",
                        "occu": 1
                    }
                ],
                "abc": [
                    0.20705113,
                    0.42650859,
                    0.55413144
                ],
                "xyz": [
                    -1.0896268959554944,
                    -1.3607832429784383,
                    4.636452204431873
                ],
                "label": "O",
                "properties": {}
            },
            {
                "species": [
                    {
                        "element": "O",
                        "occu": 1
                    }
                ],
                "abc": [
                    0.07349141,
                    0.29294887,
                    0.94586856
                ],
                "xyz": [
                    -1.089626895955494,
                    -4.372413237021561,
                    5.1229287705681275
                ],
                "label": "O",
                "properties": {}
            },
            {
                "species": [
                    {
                        "element": "O",
                        "occu": 1
                    }
                ],
                "abc": [
                    0.55413144,
                    0.20705113,
                    0.42650859
                ],
                "xyz": [
                    1.7232863299911092,
                    -0.2632529313970866,
                    4.636452204431873
                ],
                "label": "O",
                "properties": {}
            },
            {
                "species": [
                    {
                        "element": "O",
                        "occu": 1
                    }
                ],
                "abc": [
                    0.42650859,
                    0.55413144,
                    0.20705113
                ],
                "xyz": [
                    -0.6336594340356148,
                    1.6240361743755252,
                    4.636452204431873
                ],
                "label": "O",
                "properties": {}
            },
            {
                "species": [
                    {
                        "element": "O",
                        "occu": 1
                    }
                ],
                "abc": [
                    0.94586856,
                    0.07349141,
                    0.29294887
                ],
                "xyz": [
                    4.331434465964385,
                    1.2425620656244751,
                    5.1229287705681275
                ],
                "label": "O",
                "properties": {}
            },
            {
                "species": [
                    {
                        "element": "O",
                        "occu": 1
                    }
                ],
                "abc": [
                    0.29294887,
                    0.94586856,
                    0.07349141
                ],
                "xyz": [
                    -3.2418075700088913,
                    3.1298511713970862,
                    5.1229287705681275
                ],
                "label": "O",
                "properties": {}
            },
            {
                "species": [
                    {
                        "element": "O",
                        "occu": 1
                    }
                ],
                "abc": [
                    0.92650859,
                    0.70705113,
                    0.05413144
                ],
                "xyz": [
                    1.0896268959554942,
                    4.372413237021561,
                    6.588328399431872
                ],
                "label": "O",
                "properties": {}
            },
            {
                "species": [
                    {
                        "element": "O",
                        "occu": 1
                    }
                ],
                "abc": [
                    0.44586856,
                    0.79294887,
                    0.57349141
                ],
                "xyz": [
                    -1.7232863299911094,
                    0.2632529313970857,
                    7.074804965568129
                ],
                "label": "O",
                "properties": {}
            },
            {
                "species": [
                    {
                        "element": "O",
                        "occu": 1
                    }
                ],
                "abc": [
                    0.05413144,
                    0.92650859,
                    0.70705113
                ],
                "xyz": [
                    -4.331434465964385,
                    -1.2425620656244751,
                    6.588328399431873
                ],
                "label": "O",
                "properties": {}
            },
            {
                "species": [
                    {
                        "element": "O",
                        "occu": 1
                    }
                ],
                "abc": [
                    0.70705113,
                    0.05413144,
                    0.92650859
                ],
                "xyz": [
                    3.241807570008891,
                    -3.1298511713970862,
                    6.588328399431873
                ],
                "label": "O",
                "properties": {}
            }
        ]
    },
    "spacegroup": {
        "source": "spglib",
        "symbol": "R-3c",
        "number": 167,
        "point_group": "-3m",
        "crystal_system": "trigonal",
        "hall": "-R 3 2\"c"
    },
    "dielectric": {
        "epsilon_ionic": [
            [
                11.50491716,
                -1e-08,
                -1e-08
            ],
            [
                -1e-08,
                11.50496507,
                -3.41e-06
            ],
            [
                -1e-08,
                -3.41e-06,
                7.70995688
            ]
        ],
        "epsilon_ionic_avg": 10.239946370000002,
        "epsilon_ionic_eig": [
            7.709956879996937,
            11.504917159997916,
            11.504965070005152
        ],
        "epsilon_electronic": [
            [
                4.10862767,
                0.0,
                0.0
            ],
            [
                -0.0,
                4.1086276,
                -3.3e-07
            ],
            [
                0.0,
                -3.3e-07,
                3.90958603
            ]
        ],
        "epsilon_electronic_avg": 4.042280433333333,
        "epsilon_electronic_eig": [
            3.9095860299994527,
            4.108627600000547,
            4.10862767
        ]
    },
    "phonon": {
        "lowest_freq": -0.02958017953531807,
        "frequency": [
            -0.02958017953531807,
            -0.02840686865685248,
            -0.028406868441763537,
            2.7750731801767,
            2.7750732418255573,
            2.7944991553686744,
            3.1562304201233315,
            3.1620058998765974,
            3.178740735347018,
            3.178740812232851,
            3.315633910169002,
            3.3156339801948636,
            3.5382389727790993,
            4.0021097366818985,
            4.002109767215811,
            4.113591096883846,
            4.113591117678341,
            4.190741432319708,
            4.331545284125605,
            4.331545301052598,
            4.455819971563688,
            4.818575717997902,
            5.050432830284022,
            5.05043287867594,
            5.191811709285597,
            5.40970053182458,
            5.409700712537082,
            5.422028786850055,
            5.422028831925458,
            5.707111650942729,
            5.707111758002195,
            5.82406619367708,
            5.82406619367708,
            5.897652415407488,
            5.92383970588594,
            6.931741267429591,
            6.9317415494945065,
            7.758578335379475,
            7.830790711184641,
            7.830790804815083,
            8.101907743834293,
            8.261006550554592,
            8.330078115104234,
            8.330078349820043,
            9.090990926051223,
            9.260938906778406,
            9.334848750320234,
            9.33484912995165,
            10.052646824507486,
            10.052646848819501,
            10.064785439660142,
            10.0647857067698,
            10.516032154951812,
            10.615674587714585,
            14.704311572486088,
            14.913772207298145,
            14.913772764474706,
            15.223556621458057,
            15.223557014782909,
            15.66886662633391,
            15.699553671600647,
            15.699554060783887,
            16.4438354816682,
            16.44383600186341,
            17.763913795972698,
            17.798759432418766
        ]
    },
    "born_effective_charge": {
        "avg_abs_trace": 2.314839090909091,
        "tensors": [
            [
                [
                    0.84056,
                    -0.0,
                    -0.0
                ],
                [
                    -4e-05,
                    0.84055,
                    0.0
                ],
                [
                    -0.0,
                    -0.0,
                    1.25322
                ]
            ],
            [
                [
                    0.84055,
                    -0.0,
                    -0.0
                ],
                [
                    4e-05,
                    0.84055,
                    0.0
                ],
                [
                    -0.0,
                    -0.0,
                    1.25322
                ]
            ],
            [
                [
                    2.57302,
                    0.05952,
                    -0.30427
                ],
                [
                    0.05968,
                    2.50445,
                    -0.17586
                ],
                [
                    -0.26542,
                    -0.15311,
                    2.4338
                ]
            ],
            [
                [
                    2.57315,
                    -0.05953,
                    0.30436
                ],
                [
                    -0.05968,
                    2.50445,
                    -0.17586
                ],
                [
                    0.26542,
                    -0.15311,
                    2.4338
                ]
            ],
            [
                [
                    2.57302,
                    -0.05952,
                    0.30427
                ],
                [
                    -0.05938,
                    2.50416,
                    -0.17554
                ],
                [
                    0.26531,
                    -0.1533,
                    2.4338
                ]
            ],
            [
                [
                    2.57315,
                    0.05953,
                    -0.30436
                ],
                [
                    0.05938,
                    2.50416,
                    -0.17554
                ],
                [
                    -0.26531,
                    -0.1533,
                    2.4338
                ]
            ],
            [
                [
                    2.46986,
                    -0.0,
                    0.0
                ],
                [
                    -0.00015,
                    2.60749,
                    0.3514
                ],
                [
                    0.00011,
                    0.30641,
                    2.4338
                ]
            ],
            [
                [
                    2.46993,
                    -0.0,
                    0.0
                ],
                [
                    0.00015,
                    2.60749,
                    0.3514
                ],
                [
                    -0.00011,
                    0.30641,
                    2.4338
                ]
            ],
            [
                [
                    4.40968,
                    0.05895,
                    0.0
                ],
                [
                    -0.05895,
                    4.40968,
                    0.0
                ],
                [
                    -0.0,
                    -0.0,
                    3.90759
                ]
            ],
            [
                [
                    4.40968,
                    -0.05895,
                    -0.0
                ],
                [
                    0.05895,
                    4.40968,
                    0.0
                ],
                [
                    -0.0,
                    -0.0,
                    3.90759
                ]
            ],
            [
                [
                    -1.95955,
                    0.26116,
                    -0.2352
                ],
                [
                    0.16214,
                    -2.32944,
                    0.52546
                ],
                [
                    -0.24773,
                    0.53395,
                    -2.07705
                ]
            ],
            [
                [
                    -2.05359,
                    -0.21632,
                    -0.33738
                ],
                [
                    -0.31545,
                    -2.23518,
                    -0.4664
                ],
                [
                    -0.33855,
                    -0.48152,
                    -2.07705
                ]
            ],
            [
                [
                    -2.05365,
                    -0.21634,
                    -0.33744
                ],
                [
                    -0.31522,
                    -2.23513,
                    -0.46627
                ],
                [
                    -0.33876,
                    -0.4815,
                    -2.07702
                ]
            ],
            [
                [
                    -2.05365,
                    0.21634,
                    0.33744
                ],
                [
                    0.31545,
                    -2.23518,
                    -0.4664
                ],
                [
                    0.33855,
                    -0.48152,
                    -2.07705
                ]
            ],
            [
                [
                    -2.41997,
                    0.10384,
                    0.57255
                ],
                [
                    0.00461,
                    -1.86875,
                    -0.059
                ],
                [
                    0.58637,
                    -0.05263,
                    -2.07702
                ]
            ],
            [
                [
                    -1.95954,
                    0.26089,
                    -0.23511
                ],
                [
                    0.16191,
                    -2.32901,
                    0.52529
                ],
                [
                    -0.24761,
                    0.53412,
                    -2.07702
                ]
            ],
            [
                [
                    -1.95954,
                    -0.26089,
                    0.23511
                ],
                [
                    -0.16214,
                    -2.32944,
                    0.52546
                ],
                [
                    0.24773,
                    0.53395,
                    -2.07705
                ]
            ],
            [
                [
                    -2.41997,
                    -0.10384,
                    -0.57255
                ],
                [
                    -0.00502,
                    -1.86882,
                    -0.05907
                ],
                [
                    -0.58628,
                    -0.05243,
                    -2.07705
                ]
            ],
            [
                [
                    -2.05359,
                    0.21632,
                    0.33738
                ],
                [
                    0.31522,
                    -2.23513,
                    -0.46627
                ],
                [
                    0.33876,
                    -0.4815,
                    -2.07702
                ]
            ],
            [
                [
                    -2.42001,
                    0.10379,
                    0.57257
                ],
                [
                    0.00502,
                    -1.86882,
                    -0.05907
                ],
                [
                    0.58628,
                    -0.05243,
                    -2.07705
                ]
            ],
            [
                [
                    -1.95955,
                    -0.26116,
                    0.2352
                ],
                [
                    -0.16191,
                    -2.32901,
                    0.52529
                ],
                [
                    0.24761,
                    0.53412,
                    -2.07702
                ]
            ],
            [
                [
                    -2.42001,
                    -0.10379,
                    -0.57257
                ],
                [
                    -0.00461,
                    -1.86875,
                    -0.059
                ],
                [
                    -0.58637,
                    -0.05263,
                    -2.07702
                ]
            ]
        ]
    },
    "band_gap": 1.8777,
    "is_direct": false,
    "formula": "NaSr3BiO6"
}