{
    "mp_id": "mp-504510",
    "nelements": 3,
    "nsites": 9,
    "elements": [
        "Mg",
        "O",
        "V"
    ],
    "structure": {
        "@module": "pymatgen.core.structure",
        "@class": "Structure",
        "charge": null,
        "lattice": {
            "matrix": [
                [
                    4.61502094,
                    -1.7713995,
                    0.00050268
                ],
                [
                    4.61502094,
                    1.7713995,
                    0.00050268
                ],
                [
                    -2.76009379,
                    0.0,
                    5.99828017
                ]
            ],
            "a": 4.943306051411941,
            "b": 4.943306051411941,
            "c": 6.60283898996574,
            "alpha": 112.96466516667071,
            "beta": 112.96466516667071,
            "gamma": 41.9969470303442,
            "volume": 98.07734548430516
        },
        "sites": [
            {
                "species": [
                    {
                        "element": "Mg",
                        "occu": 1
                    }
                ],
                "abc": [
                    0.0,
                    0.0,
                    0.5
                ],
                "xyz": [
                    -1.380046895,
                    0.0,
                    2.999140085
                ],
                "label": "Mg",
                "properties": {}
            },
            {
                "species": [
                    {
                        "element": "V",
                        "occu": 1
                    }
                ],
                "abc": [
                    0.81649376,
                    0.81649376,
                    0.86049543
                ],
                "xyz": [
                    5.16122350689229,
                    0.0,
                    5.162313544311177
                ],
                "label": "V",
                "properties": {}
            },
            {
                "species": [
                    {
                        "element": "V",
                        "occu": 1
                    }
                ],
                "abc": [
                    0.18350624,
                    0.18350624,
                    0.13950457
                ],
                "xyz": [
                    1.3087245831077108,
                    0.0,
                    0.8369719856888234
                ],
                "label": "V",
                "properties": {}
            },
            {
                "species": [
                    {
                        "element": "O",
                        "occu": 1
                    }
                ],
                "abc": [
                    0.30758046,
                    0.30758046,
                    0.9361007
                ],
                "xyz": [
                    0.25525479838501175,
                    0.0,
                    5.615303495024385
                ],
                "label": "O",
                "properties": {}
            },
            {
                "species": [
                    {
                        "element": "O",
                        "occu": 1
                    }
                ],
                "abc": [
                    0.69241954,
                    0.69241954,
                    0.0638993
                ],
                "xyz": [
                    6.214693291614988,
                    0.0,
                    0.38398203497561545
                ],
                "label": "O",
                "properties": {}
            },
            {
                "species": [
                    {
                        "element": "O",
                        "occu": 1
                    }
                ],
                "abc": [
                    0.02499575,
                    0.02499575,
                    0.20876059
                ],
                "xyz": [
                    -0.3454869887337261,
                    0.0,
                    1.2522296370017203
                ],
                "label": "O",
                "properties": {}
            },
            {
                "species": [
                    {
                        "element": "O",
                        "occu": 1
                    }
                ],
                "abc": [
                    0.65468765,
                    0.65468765,
                    0.61259991
                ],
                "xyz": [
                    4.351961220473223,
                    0.0,
                    3.675204089072589
                ],
                "label": "O",
                "properties": {}
            },
            {
                "species": [
                    {
                        "element": "O",
                        "occu": 1
                    }
                ],
                "abc": [
                    0.97500425,
                    0.97500425,
                    0.79123941
                ],
                "xyz": [
                    6.815435078733726,
                    0.0,
                    4.747055892998279
                ],
                "label": "O",
                "properties": {}
            },
            {
                "species": [
                    {
                        "element": "O",
                        "occu": 1
                    }
                ],
                "abc": [
                    0.34531235,
                    0.34531235,
                    0.38740009
                ],
                "xyz": [
                    2.117986869526777,
                    0.0,
                    2.324081440927411
                ],
                "label": "O",
                "properties": {}
            }
        ]
    },
    "spacegroup": {
        "source": "spglib",
        "symbol": "C2/m",
        "number": 12,
        "point_group": "2/m",
        "crystal_system": "monoclinic",
        "hall": "-C 2y"
    },
    "dielectric": {
        "epsilon_ionic": [
            [
                20.79294352,
                1.4e-07,
                6.56006974
            ],
            [
                1.4e-07,
                22.50961066,
                2.2e-07
            ],
            [
                6.56006974,
                2.2e-07,
                8.33941887
            ]
        ],
        "epsilon_ionic_avg": 17.213991016666665,
        "epsilon_ionic_eig": [
            5.521454330925934,
            23.6109080590741,
            22.509610659999964
        ],
        "epsilon_electronic": [
            [
                5.947004,
                0.0,
                0.38946321
            ],
            [
                0.0,
                6.90529773,
                0.0
            ],
            [
                0.38945234,
                0.0,
                4.55345428
            ]
        ],
        "epsilon_electronic_avg": 5.80191867,
        "epsilon_electronic_eig": [
            6.0484600364243555,
            4.451998243575645,
            6.90529773
        ]
    },
    "phonon": {
        "lowest_freq": -0.05667128060541091,
        "frequency": [
            -0.05667128060541091,
            -0.028198919184143887,
            -0.01860696830112873,
            4.948968094262588,
            5.0924199510072485,
            5.320378407466634,
            5.557639718522829,
            6.549601006862024,
            6.794041443223723,
            7.635281458072473,
            8.591086751738427,
            8.630996863856556,
            8.734289381331736,
            8.917453663834854,
            9.334285674485352,
            10.433056673039395,
            10.987113107159479,
            12.766079979627413,
            13.353039537417368,
            14.100089439483018,
            14.876775268804256,
            15.613000465960768,
            21.16140615038997,
            23.272923047747824,
            24.335045357290127,
            24.590155585783624,
            26.464865800486283
        ]
    },
    "born_effective_charge": {
        "avg_abs_trace": 3.0477755555555555,
        "tensors": [
            [
                [
                    2.92961,
                    0.0,
                    -0.61067
                ],
                [
                    -0.0,
                    2.12712,
                    0.0
                ],
                [
                    0.66866,
                    0.0,
                    3.02204
                ]
            ],
            [
                [
                    5.57879,
                    0.0,
                    0.87302
                ],
                [
                    0.00081,
                    7.46323,
                    -0.00212
                ],
                [
                    0.41269,
                    0.0,
                    3.49122
                ]
            ],
            [
                [
                    5.57831,
                    0.0,
                    0.87311
                ],
                [
                    -0.00081,
                    7.46323,
                    0.00212
                ],
                [
                    0.41268,
                    0.0,
                    3.49141
                ]
            ],
            [
                [
                    -1.6724,
                    0.0,
                    0.49825
                ],
                [
                    -0.0005,
                    -6.25191,
                    0.00186
                ],
                [
                    0.51943,
                    0.0,
                    -0.98769
                ]
            ],
            [
                [
                    -1.67228,
                    0.0,
                    0.49861
                ],
                [
                    0.0005,
                    -6.25191,
                    -0.00186
                ],
                [
                    0.51941,
                    0.0,
                    -0.98794
                ]
            ],
            [
                [
                    -3.57103,
                    0.0,
                    0.07428
                ],
                [
                    0.00069,
                    -0.96012,
                    0.00011
                ],
                [
                    0.01627,
                    0.0,
                    -1.35327
                ]
            ],
            [
                [
                    -1.79976,
                    0.0,
                    -1.14112
                ],
                [
                    0.00039,
                    -1.31476,
                    0.0005
                ],
                [
                    -1.2827,
                    0.0,
                    -2.6616
                ]
            ],
            [
                [
                    -3.5719,
                    0.0,
                    0.07405
                ],
                [
                    -0.00069,
                    -0.96012,
                    -0.00011
                ],
                [
                    0.01567,
                    0.0,
                    -1.35315
                ]
            ],
            [
                [
                    -1.79935,
                    0.0,
                    -1.13953
                ],
                [
                    -0.00039,
                    -1.31476,
                    -0.0005
                ],
                [
                    -1.28209,
                    0.0,
                    -2.66103
                ]
            ]
        ]
    },
    "band_gap": 2.4409,
    "is_direct": false,
    "formula": "MgV2O6"
}