{
    "mp_id": "mp-556517",
    "nelements": 3,
    "nsites": 20,
    "elements": [
        "K",
        "O",
        "Pb"
    ],
    "structure": {
        "@module": "pymatgen.core.structure",
        "@class": "Structure",
        "charge": null,
        "lattice": {
            "matrix": [
                [
                    7.38176496,
                    0.00023038,
                    0.0001904
                ],
                [
                    3.64552187,
                    6.6114174,
                    0.0013387
                ],
                [
                    3.48224247,
                    -0.78074812,
                    9.3677705
                ]
            ],
            "a": 7.3817649660505245,
            "b": 7.5498789085513645,
            "c": 10.024505194144272,
            "alpha": 84.27840502881938,
            "beta": 69.67195563493027,
            "gamma": 61.12596093717641,
            "volume": 457.17893258600293
        },
        "sites": [
            {
                "species": [
                    {
                        "element": "K",
                        "occu": 1
                    }
                ],
                "abc": [
                    0.23486377,
                    0.27305202,
                    0.49519643
                ],
                "xyz": [
                    4.453520297855558,
                    1.418691302295269,
                    4.639296761460298
                ],
                "label": "K",
                "properties": {}
            },
            {
                "species": [
                    {
                        "element": "K",
                        "occu": 1
                    }
                ],
                "abc": [
                    0.07919107,
                    0.92606108,
                    0.17233474
                ],
                "xyz": [
                    4.560657136451134,
                    5.988044557547809,
                    1.615647089444694
                ],
                "label": "K",
                "properties": {}
            },
            {
                "species": [
                    {
                        "element": "K",
                        "occu": 1
                    }
                ],
                "abc": [
                    0.93390573,
                    0.54912014,
                    0.83217503
                ],
                "xyz": [
                    11.793537305224206,
                    2.9809585113050696,
                    7.796537619653026
                ],
                "label": "K",
                "properties": {}
            },
            {
                "species": [
                    {
                        "element": "K",
                        "occu": 1
                    }
                ],
                "abc": [
                    0.92080893,
                    0.07393892,
                    0.82766526
                ],
                "xyz": [
                    9.948872163548865,
                    -0.1571448975478098,
                    7.753652510555306
                ],
                "label": "K",
                "properties": {}
            },
            {
                "species": [
                    {
                        "element": "K",
                        "occu": 1
                    }
                ],
                "abc": [
                    0.60222224,
                    0.43176955,
                    0.13970614
                ],
                "xyz": [
                    6.505979020717535,
                    2.745672149462364,
                    1.3094277299719512
                ],
                "label": "K",
                "properties": {}
            },
            {
                "species": [
                    {
                        "element": "K",
                        "occu": 1
                    }
                ],
                "abc": [
                    0.06609427,
                    0.45087986,
                    0.16782497
                ],
                "xyz": [
                    2.715991994775793,
                    2.8499411486949304,
                    1.5727619803469752
                ],
                "label": "K",
                "properties": {}
            },
            {
                "species": [
                    {
                        "element": "K",
                        "occu": 1
                    }
                ],
                "abc": [
                    0.39777776,
                    0.56823045,
                    0.86029386
                ],
                "xyz": [
                    8.003550279282464,
                    3.085227510537636,
                    8.059871870028049
                ],
                "label": "K",
                "properties": {}
            },
            {
                "species": [
                    {
                        "element": "K",
                        "occu": 1
                    }
                ],
                "abc": [
                    0.76513623,
                    0.72694798,
                    0.50480357
                ],
                "xyz": [
                    10.05600900214444,
                    4.41220835770473,
                    4.730002838539702
                ],
                "label": "K",
                "properties": {}
            },
            {
                "species": [
                    {
                        "element": "Pb",
                        "occu": 1
                    }
                ],
                "abc": [
                    0.59935842,
                    0.93735521,
                    0.132399
                ],
                "xyz": [
                    8.302517322035936,
                    6.094014355227573,
                    1.241652401692295
                ],
                "label": "Pb",
                "properties": {}
            },
            {
                "species": [
                    {
                        "element": "Pb",
                        "occu": 1
                    }
                ],
                "abc": [
                    0.29878891,
                    0.71528404,
                    0.47380031
                ],
                "xyz": [
                    6.463060679137714,
                    4.359191481699464,
                    4.439467007061667
                ],
                "label": "Pb",
                "properties": {}
            },
            {
                "species": [
                    {
                        "element": "Pb",
                        "occu": 1
                    }
                ],
                "abc": [
                    0.70121109,
                    0.28471596,
                    0.52619969
                ],
                "xyz": [
                    8.046468620862285,
                    1.4717081783005352,
                    4.929832592938333
                ],
                "label": "Pb",
                "properties": {}
            },
            {
                "species": [
                    {
                        "element": "Pb",
                        "occu": 1
                    }
                ],
                "abc": [
                    0.40064158,
                    0.06264479,
                    0.867601
                ],
                "xyz": [
                    6.207011977964064,
                    -0.26311469522757364,
                    8.127647198307704
                ],
                "label": "Pb",
                "properties": {}
            },
            {
                "species": [
                    {
                        "element": "O",
                        "occu": 1
                    }
                ],
                "abc": [
                    0.49920879,
                    0.7972635,
                    0.00490712
                ],
                "xyz": [
                    6.60857126081813,
                    5.267325559291325,
                    0.04713111997702601
                ],
                "label": "O",
                "properties": {}
            },
            {
                "species": [
                    {
                        "element": "O",
                        "occu": 1
                    }
                ],
                "abc": [
                    0.81092088,
                    0.40096324,
                    0.6513817
                ],
                "xyz": [
                    9.716016617723222,
                    2.142557123971306,
                    6.102685442324789
                ],
                "label": "O",
                "properties": {}
            },
            {
                "species": [
                    {
                        "element": "O",
                        "occu": 1
                    }
                ],
                "abc": [
                    0.94462508,
                    0.78109036,
                    0.01487031
                ],
                "xyz": [
                    9.872264330731435,
                    5.152722053225877,
                    0.140527153624019
                ],
                "label": "O",
                "properties": {}
            },
            {
                "species": [
                    {
                        "element": "O",
                        "occu": 1
                    }
                ],
                "abc": [
                    0.50079121,
                    0.2027365,
                    0.99509288
                ],
                "xyz": [
                    7.9009580391818695,
                    0.563574100708674,
                    9.322168480022974
                ],
                "label": "O",
                "properties": {}
            },
            {
                "species": [
                    {
                        "element": "O",
                        "occu": 1
                    }
                ],
                "abc": [
                    0.05537492,
                    0.21890964,
                    0.98512969
                ],
                "xyz": [
                    4.637264969268564,
                    0.6781776067741226,
                    9.22877244637598
                ],
                "label": "O",
                "properties": {}
            },
            {
                "species": [
                    {
                        "element": "O",
                        "occu": 1
                    }
                ],
                "abc": [
                    0.18907912,
                    0.59903676,
                    0.3486183
                ],
                "xyz": [
                    4.793512682276777,
                    3.6883425360286934,
                    3.26661415767521
                ],
                "label": "O",
                "properties": {}
            },
            {
                "species": [
                    {
                        "element": "O",
                        "occu": 1
                    }
                ],
                "abc": [
                    0.66371962,
                    0.52057886,
                    0.36812264
                ],
                "xyz": [
                    8.079096144546703,
                    3.154505981692782,
                    3.4493116785096505
                ],
                "label": "O",
                "properties": {}
            },
            {
                "species": [
                    {
                        "element": "O",
                        "occu": 1
                    }
                ],
                "abc": [
                    0.33628038,
                    0.47942114,
                    0.63187736
                ],
                "xyz": [
                    6.430433155453295,
                    2.6763936783072175,
                    5.9199879214903515
                ],
                "label": "O",
                "properties": {}
            }
        ]
    },
    "spacegroup": {
        "source": "spglib",
        "symbol": "P-1",
        "number": 2,
        "point_group": "-1",
        "crystal_system": "triclinic",
        "hall": "-P 1"
    },
    "dielectric": {
        "epsilon_ionic": [
            [
                4.47578265,
                -0.5923104,
                0.47245147
            ],
            [
                -0.5923104,
                4.01160484,
                -0.91899086
            ],
            [
                0.47245147,
                -0.91899086,
                3.73879078
            ]
        ],
        "epsilon_ionic_avg": 4.075392756666666,
        "epsilon_ionic_eig": [
            5.414860763678795,
            3.865871990373645,
            2.945445515947558
        ],
        "epsilon_electronic": [
            [
                3.85187666,
                -0.13759773,
                0.11329196
            ],
            [
                -0.13759905,
                3.78244583,
                -0.17599466
            ],
            [
                0.11328977,
                -0.17599573,
                3.82612184
            ]
        ],
        "epsilon_electronic_avg": 3.8201481099999985,
        "epsilon_electronic_eig": [
            4.104877900780463,
            3.7340955533287343,
            3.621470875890798
        ]
    },
    "phonon": {
        "lowest_freq": -0.05624619668676387,
        "frequency": [
            -0.05624619668676387,
            -0.03245372359112695,
            -0.025380024375746716,
            1.018356477014313,
            1.2627311797218204,
            1.2662576697961005,
            1.5741621104788035,
            1.7364122191312055,
            1.8788126018580624,
            1.935441302217667,
            2.0074228136960053,
            2.6621500912779887,
            2.703691817851395,
            2.75525698638898,
            2.781743237127915,
            2.8745904424166677,
            2.9384427715013413,
            3.097114291743921,
            3.1373631580834505,
            3.318400296138383,
            3.383116602126925,
            3.438073049678808,
            3.6100098758440993,
            3.77313781784633,
            3.775569691759601,
            3.914323709963438,
            4.200764053372603,
            4.275812661648333,
            4.346192906416106,
            4.603020763094855,
            4.644600591255436,
            4.736079731235832,
            4.799417498867282,
            5.087316801918461,
            5.138340445284523,
            5.371442409914158,
            6.053612621407408,
            6.495921986209952,
            6.532652442052759,
            6.781047777341627,
            6.83060726455127,
            7.020182680736744,
            7.135107162706273,
            7.294151813840666,
            8.768744998615375,
            9.075750779779353,
            9.25969161120714,
            9.61197298654206,
            10.158766899227501,
            10.385369546251175,
            10.705845102750608,
            11.398592205266114,
            11.584202064702316,
            12.1742710188526,
            12.30608083422258,
            12.334353622084842,
            14.776137810882517,
            14.876707592267286,
            15.339728373423902,
            15.426392038043092
        ]
    },
    "born_effective_charge": {
        "avg_abs_trace": 1.586870166666667,
        "tensors": [
            [
                [
                    1.4066,
                    0.17982,
                    -0.08059
                ],
                [
                    0.15823,
                    1.10316,
                    -0.0378
                ],
                [
                    0.00936,
                    -0.03609,
                    0.95667
                ]
            ],
            [
                [
                    1.36478,
                    0.02001,
                    0.01331
                ],
                [
                    -0.00535,
                    0.99212,
                    -0.15671
                ],
                [
                    -0.00795,
                    -0.20135,
                    1.155
                ]
            ],
            [
                [
                    1.12772,
                    -0.1229,
                    0.03733
                ],
                [
                    -0.07363,
                    1.2234,
                    0.16706
                ],
                [
                    0.04095,
                    0.1706,
                    1.2015
                ]
            ],
            [
                [
                    1.36482,
                    0.02029,
                    0.01311
                ],
                [
                    -0.00539,
                    0.99208,
                    -0.15664
                ],
                [
                    -0.00786,
                    -0.20139,
                    1.15491
                ]
            ],
            [
                [
                    1.14587,
                    0.0886,
                    0.00074
                ],
                [
                    0.06116,
                    1.21539,
                    0.1329
                ],
                [
                    -0.01704,
                    0.15226,
                    1.30791
                ]
            ],
            [
                [
                    1.12765,
                    -0.12289,
                    0.03737
                ],
                [
                    -0.07357,
                    1.2234,
                    0.16705
                ],
                [
                    0.0409,
                    0.1706,
                    1.20164
                ]
            ],
            [
                [
                    1.14584,
                    0.08858,
                    0.0008
                ],
                [
                    0.06114,
                    1.21543,
                    0.13294
                ],
                [
                    -0.01706,
                    0.15219,
                    1.30789
                ]
            ],
            [
                [
                    1.40668,
                    0.17969,
                    -0.08051
                ],
                [
                    0.15824,
                    1.10317,
                    -0.03778
                ],
                [
                    0.00942,
                    -0.03612,
                    0.95666
                ]
            ],
            [
                [
                    1.79211,
                    -0.56078,
                    0.21903
                ],
                [
                    -0.63066,
                    1.36892,
                    -0.40783
                ],
                [
                    0.29666,
                    -0.28648,
                    1.66222
                ]
            ],
            [
                [
                    1.71819,
                    -0.40053,
                    0.37507
                ],
                [
                    -0.41087,
                    1.82638,
                    -0.34762
                ],
                [
                    0.39016,
                    -0.42842,
                    1.23513
                ]
            ],
            [
                [
                    1.71824,
                    -0.401,
                    0.375
                ],
                [
                    -0.41076,
                    1.8266,
                    -0.34746
                ],
                [
                    0.3906,
                    -0.42838,
                    1.23505
                ]
            ],
            [
                [
                    1.79199,
                    -0.56095,
                    0.21898
                ],
                [
                    -0.63066,
                    1.36886,
                    -0.40784
                ],
                [
                    0.29636,
                    -0.28646,
                    1.66212
                ]
            ],
            [
                [
                    -1.91147,
                    -0.09071,
                    -0.8708
                ],
                [
                    0.04008,
                    -2.00749,
                    0.62139
                ],
                [
                    -0.54411,
                    0.3456,
                    -2.08849
                ]
            ],
            [
                [
                    -2.49497,
                    -0.49774,
                    -0.61635
                ],
                [
                    -0.0613,
                    -1.58148,
                    0.00449
                ],
                [
                    -0.58476,
                    -0.30248,
                    -1.78274
                ]
            ],
            [
                [
                    -2.39361,
                    0.60051,
                    0.62956
                ],
                [
                    0.49234,
                    -1.64662,
                    -0.33159
                ],
                [
                    0.29926,
                    -0.21028,
                    -1.7494
                ]
            ],
            [
                [
                    -1.9116,
                    -0.09071,
                    -0.87099
                ],
                [
                    0.04023,
                    -2.00746,
                    0.62138
                ],
                [
                    -0.54423,
                    0.34536,
                    -2.08856
                ]
            ],
            [
                [
                    -2.39388,
                    0.60055,
                    0.62942
                ],
                [
                    0.49251,
                    -1.64673,
                    -0.33161
                ],
                [
                    0.29946,
                    -0.21029,
                    -1.74954
                ]
            ],
            [
                [
                    -2.49478,
                    -0.49779,
                    -0.61647
                ],
                [
                    -0.0614,
                    -1.5816,
                    0.00443
                ],
                [
                    -0.58487,
                    -0.30254,
                    -1.78314
                ]
            ],
            [
                [
                    -1.75499,
                    0.78391,
                    0.29305
                ],
                [
                    0.42984,
                    -2.49378,
                    0.35565
                ],
                [
                    0.1173,
                    0.79684,
                    -1.89751
                ]
            ],
            [
                [
                    -1.75518,
                    0.78403,
                    0.29293
                ],
                [
                    0.4298,
                    -2.49375,
                    0.35558
                ],
                [
                    0.11744,
                    0.79682,
                    -1.89734
                ]
            ]
        ]
    },
    "band_gap": 1.8729999999999998,
    "is_direct": true,
    "formula": "K2PbO2"
}