{
    "mp_id": "mp-541075",
    "nelements": 3,
    "nsites": 30,
    "elements": [
        "Mo",
        "O",
        "Rb"
    ],
    "structure": {
        "@module": "pymatgen.core.structure",
        "@class": "Structure",
        "charge": null,
        "lattice": {
            "matrix": [
                [
                    7.1356426,
                    -4.08808013,
                    0.00139603
                ],
                [
                    7.1356426,
                    4.08808013,
                    0.00139603
                ],
                [
                    -1.29652161,
                    0.0,
                    9.09556411
                ]
            ],
            "a": 8.223733727032712,
            "b": 8.223733727032712,
            "c": 9.187505361321815,
            "alpha": 97.02361348255698,
            "beta": 97.02361348255698,
            "gamma": 59.61764176554111,
            "volume": 530.6696321654725
        },
        "sites": [
            {
                "species": [
                    {
                        "element": "Rb",
                        "occu": 1
                    }
                ],
                "abc": [
                    0.76739942,
                    0.59794834,
                    0.65921596
                ],
                "xyz": [
                    8.88794590227368,
                    -0.6927295931550406,
                    5.9978470929485885
                ],
                "label": "Rb",
                "properties": {}
            },
            {
                "species": [
                    {
                        "element": "Rb",
                        "occu": 1
                    }
                ],
                "abc": [
                    0.40205166,
                    0.23260058,
                    0.84078404
                ],
                "xyz": [
                    3.4385568827263193,
                    -0.6927295931550403,
                    7.648291132051411
                ],
                "label": "Rb",
                "properties": {}
            },
            {
                "species": [
                    {
                        "element": "Rb",
                        "occu": 1
                    }
                ],
                "abc": [
                    0.23260058,
                    0.40205166,
                    0.34078404
                ],
                "xyz": [
                    4.086817687726319,
                    0.6927295931550403,
                    3.100509077051411
                ],
                "label": "Rb",
                "properties": {}
            },
            {
                "species": [
                    {
                        "element": "Rb",
                        "occu": 1
                    }
                ],
                "abc": [
                    0.59794834,
                    0.76739942,
                    0.15921596
                ],
                "xyz": [
                    9.53620670727368,
                    0.6927295931550406,
                    1.4500650379485882
                ],
                "label": "Rb",
                "properties": {}
            },
            {
                "species": [
                    {
                        "element": "Mo",
                        "occu": 1
                    }
                ],
                "abc": [
                    0.96524655,
                    0.81989258,
                    0.97852429
                ],
                "xyz": [
                    11.469436935060031,
                    -0.5942186765736164,
                    8.902722520666885
                ],
                "label": "Mo",
                "properties": {}
            },
            {
                "species": [
                    {
                        "element": "Mo",
                        "occu": 1
                    }
                ],
                "abc": [
                    0.18010742,
                    0.03475345,
                    0.52147571
                ],
                "xyz": [
                    0.8570658499399688,
                    -0.5942186765736159,
                    4.743415704333114
                ],
                "label": "Mo",
                "properties": {}
            },
            {
                "species": [
                    {
                        "element": "Mo",
                        "occu": 1
                    }
                ],
                "abc": [
                    0.03475345,
                    0.18010742,
                    0.02147571
                ],
                "xyz": [
                    1.5053266549399689,
                    0.5942186765736159,
                    0.19563364933311417
                ],
                "label": "Mo",
                "properties": {}
            },
            {
                "species": [
                    {
                        "element": "Mo",
                        "occu": 1
                    }
                ],
                "abc": [
                    0.81989258,
                    0.96524655,
                    0.47852429
                ],
                "xyz": [
                    12.11769774006003,
                    0.5942186765736164,
                    4.3549404656668855
                ],
                "label": "Mo",
                "properties": {}
            },
            {
                "species": [
                    {
                        "element": "Mo",
                        "occu": 1
                    }
                ],
                "abc": [
                    0.28711347,
                    0.71288653,
                    0.75
                ],
                "xyz": [
                    6.1632513925,
                    1.7405943864752977,
                    6.823069112500001
                ],
                "label": "Mo",
                "properties": {}
            },
            {
                "species": [
                    {
                        "element": "Mo",
                        "occu": 1
                    }
                ],
                "abc": [
                    0.71288653,
                    0.28711347,
                    0.25
                ],
                "xyz": [
                    6.811512197500001,
                    -1.7405943864752977,
                    2.2752870575
                ],
                "label": "Mo",
                "properties": {}
            },
            {
                "species": [
                    {
                        "element": "O",
                        "occu": 1
                    }
                ],
                "abc": [
                    0.10832375,
                    0.65087166,
                    0.81973906
                ],
                "xyz": [
                    4.354537703469378,
                    2.2179793304440283,
                    7.457049033269358
                ],
                "label": "O",
                "properties": {}
            },
            {
                "species": [
                    {
                        "element": "O",
                        "occu": 1
                    }
                ],
                "abc": [
                    0.34912834,
                    0.89167625,
                    0.68026094
                ],
                "xyz": [
                    7.97196508153062,
                    2.2179793304440283,
                    6.189089191730641
                ],
                "label": "O",
                "properties": {}
            },
            {
                "species": [
                    {
                        "element": "O",
                        "occu": 1
                    }
                ],
                "abc": [
                    0.89167625,
                    0.34912834,
                    0.18026094
                ],
                "xyz": [
                    8.62022588653062,
                    -2.2179793304440283,
                    1.641307136730641
                ],
                "label": "O",
                "properties": {}
            },
            {
                "species": [
                    {
                        "element": "O",
                        "occu": 1
                    }
                ],
                "abc": [
                    0.65087166,
                    0.10832375,
                    0.31973906
                ],
                "xyz": [
                    5.002798508469378,
                    -2.2179793304440283,
                    2.9092669782693594
                ],
                "label": "O",
                "properties": {}
            },
            {
                "species": [
                    {
                        "element": "O",
                        "occu": 1
                    }
                ],
                "abc": [
                    0.89512064,
                    0.05776293,
                    0.09451553
                ],
                "xyz": [
                    6.676895167806479,
                    -3.423185415953302,
                    0.8610023165558555
                ],
                "label": "O",
                "properties": {}
            },
            {
                "species": [
                    {
                        "element": "O",
                        "occu": 1
                    }
                ],
                "abc": [
                    0.94223707,
                    0.10487936,
                    0.40548447
                ],
                "xyz": [
                    6.94612922719352,
                    -3.423185415953302,
                    3.6895717984441445
                ],
                "label": "O",
                "properties": {}
            },
            {
                "species": [
                    {
                        "element": "O",
                        "occu": 1
                    }
                ],
                "abc": [
                    0.10487936,
                    0.94223707,
                    0.90548447
                ],
                "xyz": [
                    6.29786842219352,
                    3.423185415953302,
                    8.237353853444144
                ],
                "label": "O",
                "properties": {}
            },
            {
                "species": [
                    {
                        "element": "O",
                        "occu": 1
                    }
                ],
                "abc": [
                    0.05776293,
                    0.89512064,
                    0.59451553
                ],
                "xyz": [
                    6.0286343628064785,
                    3.423185415953302,
                    5.408784371555855
                ],
                "label": "O",
                "properties": {}
            },
            {
                "species": [
                    {
                        "element": "O",
                        "occu": 1
                    }
                ],
                "abc": [
                    0.04868657,
                    0.66941786,
                    0.11968224
                ],
                "xyz": [
                    4.968965951463512,
                    2.537599252718268,
                    1.0895799820758192
                ],
                "label": "O",
                "properties": {}
            },
            {
                "species": [
                    {
                        "element": "O",
                        "occu": 1
                    }
                ],
                "abc": [
                    0.33058214,
                    0.95131343,
                    0.38031776
                ],
                "xyz": [
                    8.654058443536488,
                    2.537599252718268,
                    3.4609941329241805
                ],
                "label": "O",
                "properties": {}
            },
            {
                "species": [
                    {
                        "element": "O",
                        "occu": 1
                    }
                ],
                "abc": [
                    0.95131343,
                    0.33058214,
                    0.88031776
                ],
                "xyz": [
                    8.005797638536489,
                    -2.537599252718268,
                    8.008776187924179
                ],
                "label": "O",
                "properties": {}
            },
            {
                "species": [
                    {
                        "element": "O",
                        "occu": 1
                    }
                ],
                "abc": [
                    0.66941786,
                    0.04868657,
                    0.61968224
                ],
                "xyz": [
                    4.320705146463512,
                    -2.537599252718268,
                    5.637362037075819
                ],
                "label": "O",
                "properties": {}
            },
            {
                "species": [
                    {
                        "element": "O",
                        "occu": 1
                    }
                ],
                "abc": [
                    0.7387243,
                    0.85952717,
                    0.91960111
                ],
                "xyz": [
                    10.212268563149633,
                    0.4938518124939728,
                    8.366522058631826
                ],
                "label": "O",
                "properties": {}
            },
            {
                "species": [
                    {
                        "element": "O",
                        "occu": 1
                    }
                ],
                "abc": [
                    0.14047283,
                    0.2612757,
                    0.58039889
                ],
                "xyz": [
                    2.1142342218503654,
                    0.49385181249397303,
                    5.279616166368174
                ],
                "label": "O",
                "properties": {}
            },
            {
                "species": [
                    {
                        "element": "O",
                        "occu": 1
                    }
                ],
                "abc": [
                    0.2612757,
                    0.14047283,
                    0.08039889
                ],
                "xyz": [
                    2.762495026850365,
                    -0.49385181249397303,
                    0.7318341113681738
                ],
                "label": "O",
                "properties": {}
            },
            {
                "species": [
                    {
                        "element": "O",
                        "occu": 1
                    }
                ],
                "abc": [
                    0.85952717,
                    0.7387243,
                    0.41960111
                ],
                "xyz": [
                    10.860529368149635,
                    -0.4938518124939728,
                    3.818740003631826
                ],
                "label": "O",
                "properties": {}
            },
            {
                "species": [
                    {
                        "element": "O",
                        "occu": 1
                    }
                ],
                "abc": [
                    0.36665666,
                    0.52707867,
                    0.61554415
                ],
                "xyz": [
                    5.579309601488976,
                    0.6558180314956612,
                    5.599968960193196
                ],
                "label": "O",
                "properties": {}
            },
            {
                "species": [
                    {
                        "element": "O",
                        "occu": 1
                    }
                ],
                "abc": [
                    0.47292133,
                    0.63334334,
                    0.88445585
                ],
                "xyz": [
                    6.747193183511023,
                    0.6558180314956614,
                    8.046169264806803
                ],
                "label": "O",
                "properties": {}
            },
            {
                "species": [
                    {
                        "element": "O",
                        "occu": 1
                    }
                ],
                "abc": [
                    0.63334334,
                    0.47292133,
                    0.38445585
                ],
                "xyz": [
                    7.395453988511023,
                    -0.6558180314956614,
                    3.4983872098068036
                ],
                "label": "O",
                "properties": {}
            },
            {
                "species": [
                    {
                        "element": "O",
                        "occu": 1
                    }
                ],
                "abc": [
                    0.52707867,
                    0.36665666,
                    0.11554415
                ],
                "xyz": [
                    6.227570406488977,
                    -0.6558180314956612,
                    1.0521869051931965
                ],
                "label": "O",
                "properties": {}
            }
        ]
    },
    "spacegroup": {
        "source": "spglib",
        "symbol": "C2/c",
        "number": 15,
        "point_group": "2/m",
        "crystal_system": "monoclinic",
        "hall": "-C 2yc"
    },
    "dielectric": {
        "epsilon_ionic": [
            [
                5.61509811,
                -1.52e-06,
                -0.99235174
            ],
            [
                -1.52e-06,
                3.80835448,
                6e-08
            ],
            [
                -0.99235174,
                6e-08,
                5.89959746
            ]
        ],
        "epsilon_ionic_avg": 5.107683349999999,
        "epsilon_ionic_eig": [
            6.759843144550043,
            4.754852425451623,
            3.8083544799983327
        ],
        "epsilon_electronic": [
            [
                3.17994749,
                0.0,
                -0.1132526
            ],
            [
                0.0,
                3.13899801,
                0.0
            ],
            [
                -0.11325839,
                0.0,
                3.47069581
            ]
        ],
        "epsilon_electronic_avg": 3.26321377,
        "epsilon_electronic_eig": [
            3.1410380274639222,
            3.509605272536078,
            3.13899801
        ]
    },
    "phonon": {
        "lowest_freq": -0.10899294425088459,
        "frequency": [
            -0.10899294425088459,
            -0.05448003340202525,
            -0.042084762658118655,
            0.8357535819231163,
            1.188754096567029,
            1.2569675015099782,
            1.5772862723429286,
            1.663037659855758,
            1.6968847032995242,
            1.7645317385883674,
            1.8256518602632945,
            1.902760045596308,
            2.027217879798357,
            2.027224263407496,
            2.0999577561961957,
            2.1291105282783604,
            2.175498687860513,
            2.230115292479993,
            2.3155937155504134,
            2.431359592138205,
            2.6299935689542706,
            2.7423210833604883,
            2.893289589638526,
            2.9058246040461384,
            2.9723038496717704,
            2.9972948820089127,
            3.0921726625396664,
            3.423546138974475,
            3.8674341896418327,
            4.037320242391332,
            4.284307265929198,
            4.71767363848464,
            4.808484353057382,
            5.395426352002732,
            5.660831908599601,
            5.825006443311637,
            5.90598010601287,
            5.9157149123756545,
            6.066469251867615,
            6.083175525217296,
            6.3961228323934005,
            6.4043097691646,
            6.775380689531611,
            7.025326103560133,
            7.42050402317343,
            7.578128937490471,
            7.6144024910672305,
            7.7018671403200525,
            8.259321140319788,
            8.2836288404762,
            8.871584780920896,
            9.021781763900838,
            9.367274039327086,
            9.766925111555548,
            9.815987555360138,
            9.877488635897137,
            10.123929122335486,
            10.263028225070494,
            10.500068364995117,
            10.561039323745035,
            10.965074464633606,
            10.992595092675293,
            14.26102047262237,
            14.390093392009435,
            14.522461149513354,
            14.97637786073266,
            16.04286747173109,
            16.63816072133899,
            16.834638707665547,
            16.96276793209971,
            16.98641923225854,
            18.957070477347905,
            20.103877314669866,
            20.862525367167237,
            21.550404909611135,
            21.689537725531952,
            21.689643814543114,
            22.596498931071174,
            26.25657941211618,
            26.525493779029603,
            26.67490658307392,
            26.775656857442808,
            26.980402120020884,
            27.015794656935004,
            27.467160305455394,
            27.557332903125427,
            27.660491438236168,
            28.040167334609876,
            28.086979197375143,
            28.36602280914065
        ]
    },
    "born_effective_charge": {
        "avg_abs_trace": 2.0190714444444446,
        "tensors": [
            [
                [
                    1.46438,
                    0.17074,
                    0.04295
                ],
                [
                    -0.00707,
                    1.39243,
                    0.05843
                ],
                [
                    0.04135,
                    -0.10778,
                    1.36193
                ]
            ],
            [
                [
                    1.46443,
                    -0.17059,
                    0.04283
                ],
                [
                    0.00707,
                    1.39243,
                    -0.05843
                ],
                [
                    0.04142,
                    0.10779,
                    1.36192
                ]
            ],
            [
                [
                    1.46443,
                    0.17059,
                    0.04283
                ],
                [
                    -0.00706,
                    1.39221,
                    0.05856
                ],
                [
                    0.04142,
                    -0.10779,
                    1.36192
                ]
            ],
            [
                [
                    1.46438,
                    -0.17074,
                    0.04295
                ],
                [
                    0.00706,
                    1.39221,
                    -0.05856
                ],
                [
                    0.04135,
                    0.10778,
                    1.36193
                ]
            ],
            [
                [
                    3.49501,
                    -0.07615,
                    -0.33119
                ],
                [
                    0.70462,
                    3.53725,
                    0.74444
                ],
                [
                    0.62213,
                    1.2585,
                    4.27663
                ]
            ],
            [
                [
                    3.49615,
                    0.0767,
                    -0.33112
                ],
                [
                    -0.70462,
                    3.53725,
                    -0.74444
                ],
                [
                    0.62182,
                    -1.25857,
                    4.2766
                ]
            ],
            [
                [
                    3.49615,
                    -0.0767,
                    -0.33112
                ],
                [
                    0.70453,
                    3.53717,
                    0.74408
                ],
                [
                    0.62182,
                    1.25857,
                    4.2766
                ]
            ],
            [
                [
                    3.49501,
                    0.07615,
                    -0.33119
                ],
                [
                    -0.70453,
                    3.53717,
                    -0.74408
                ],
                [
                    0.62213,
                    -1.2585,
                    4.27663
                ]
            ],
            [
                [
                    4.24926,
                    2e-05,
                    -0.03168
                ],
                [
                    -0.0,
                    4.2616,
                    0.0
                ],
                [
                    -1.81543,
                    -0.00043,
                    5.86223
                ]
            ],
            [
                [
                    4.24926,
                    -2e-05,
                    -0.03168
                ],
                [
                    -0.0,
                    4.26141,
                    0.0
                ],
                [
                    -1.81543,
                    0.00043,
                    5.86223
                ]
            ],
            [
                [
                    -1.82137,
                    0.59974,
                    0.78558
                ],
                [
                    0.40146,
                    -1.59545,
                    -1.14976
                ],
                [
                    1.10143,
                    -1.57585,
                    -2.28064
                ]
            ],
            [
                [
                    -1.82186,
                    -0.59833,
                    0.78537
                ],
                [
                    -0.40146,
                    -1.59545,
                    1.14976
                ],
                [
                    1.10086,
                    1.57614,
                    -2.28194
                ]
            ],
            [
                [
                    -1.82186,
                    0.59833,
                    0.78537
                ],
                [
                    0.40192,
                    -1.59546,
                    -1.14948
                ],
                [
                    1.10086,
                    -1.57614,
                    -2.28194
                ]
            ],
            [
                [
                    -1.82137,
                    -0.59974,
                    0.78558
                ],
                [
                    -0.40192,
                    -1.59546,
                    1.14948
                ],
                [
                    1.10143,
                    1.57585,
                    -2.28064
                ]
            ],
            [
                [
                    -1.81477,
                    -0.70678,
                    -0.28212
                ],
                [
                    -0.84089,
                    -1.62479,
                    -1.07072
                ],
                [
                    -0.46402,
                    -1.59898,
                    -1.94736
                ]
            ],
            [
                [
                    -1.8145,
                    0.70646,
                    -0.28181
                ],
                [
                    0.84089,
                    -1.62479,
                    1.07072
                ],
                [
                    -0.46413,
                    1.59895,
                    -1.9472
                ]
            ],
            [
                [
                    -1.8145,
                    -0.70646,
                    -0.28181
                ],
                [
                    -0.8408,
                    -1.62483,
                    -1.07061
                ],
                [
                    -0.46413,
                    -1.59895,
                    -1.9472
                ]
            ],
            [
                [
                    -1.81477,
                    0.70678,
                    -0.28212
                ],
                [
                    0.8408,
                    -1.62483,
                    1.07061
                ],
                [
                    -0.46402,
                    1.59898,
                    -1.94736
                ]
            ],
            [
                [
                    -0.82106,
                    -0.63577,
                    0.69511
                ],
                [
                    -0.45091,
                    -1.18695,
                    0.64529
                ],
                [
                    0.4776,
                    0.66043,
                    -1.61889
                ]
            ],
            [
                [
                    -0.81911,
                    0.63427,
                    0.69346
                ],
                [
                    0.45091,
                    -1.18695,
                    -0.64529
                ],
                [
                    0.47752,
                    -0.6602,
                    -1.61921
                ]
            ],
            [
                [
                    -0.81911,
                    -0.63427,
                    0.69346
                ],
                [
                    -0.45188,
                    -1.1887,
                    0.64743
                ],
                [
                    0.47752,
                    0.6602,
                    -1.61921
                ]
            ],
            [
                [
                    -0.82106,
                    0.63577,
                    0.69511
                ],
                [
                    0.45188,
                    -1.1887,
                    -0.64743
                ],
                [
                    0.4776,
                    -0.66043,
                    -1.61889
                ]
            ],
            [
                [
                    -1.69459,
                    0.93293,
                    -0.46769
                ],
                [
                    0.654,
                    -1.20548,
                    0.13289
                ],
                [
                    -0.4921,
                    0.24215,
                    -0.9462
                ]
            ],
            [
                [
                    -1.69822,
                    -0.93651,
                    -0.46971
                ],
                [
                    -0.654,
                    -1.20548,
                    -0.13289
                ],
                [
                    -0.49081,
                    -0.24061,
                    -0.9457
                ]
            ],
            [
                [
                    -1.69822,
                    0.93651,
                    -0.46971
                ],
                [
                    0.6555,
                    -1.20601,
                    0.13353
                ],
                [
                    -0.49081,
                    0.24061,
                    -0.9457
                ]
            ],
            [
                [
                    -1.69459,
                    -0.93293,
                    -0.46769
                ],
                [
                    -0.6555,
                    -1.20601,
                    -0.13353
                ],
                [
                    -0.4921,
                    -0.24215,
                    -0.9462
                ]
            ],
            [
                [
                    -0.93249,
                    -0.37521,
                    -0.42568
                ],
                [
                    -0.57523,
                    -1.44698,
                    -1.03764
                ],
                [
                    -0.37856,
                    -0.73318,
                    -1.77496
                ]
            ],
            [
                [
                    -0.93126,
                    0.37429,
                    -0.4243
                ],
                [
                    0.57523,
                    -1.44698,
                    1.03764
                ],
                [
                    -0.37907,
                    0.73505,
                    -1.77721
                ]
            ],
            [
                [
                    -0.93126,
                    -0.37429,
                    -0.4243
                ],
                [
                    -0.57435,
                    -1.44592,
                    -1.03647
                ],
                [
                    -0.37907,
                    -0.73505,
                    -1.77721
                ]
            ],
            [
                [
                    -0.93249,
                    0.37521,
                    -0.42568
                ],
                [
                    0.57435,
                    -1.44592,
                    1.03647
                ],
                [
                    -0.37856,
                    0.73318,
                    -1.77496
                ]
            ]
        ]
    },
    "band_gap": 3.2767,
    "is_direct": false,
    "formula": "Rb2Mo3O10"
}