{
    "mp_id": "mp-556185",
    "nelements": 4,
    "nsites": 12,
    "elements": [
        "Na",
        "O",
        "Rb",
        "Ti"
    ],
    "structure": {
        "@module": "pymatgen.core.structure",
        "@class": "Structure",
        "charge": null,
        "lattice": {
            "matrix": [
                [
                    2.93030752,
                    -5.5075041,
                    -0.00475938
                ],
                [
                    2.93030752,
                    5.5075041,
                    -0.00475938
                ],
                [
                    -0.34718205,
                    0.0,
                    5.5700408
                ]
            ],
            "a": 6.238535583370775,
            "b": 6.238535583370775,
            "c": 5.580850283738746,
            "alpha": 91.71809428776068,
            "beta": 91.71809428776068,
            "gamma": 123.96886883849007,
            "volume": 179.7680188154298
        },
        "sites": [
            {
                "species": [
                    {
                        "element": "Rb",
                        "occu": 1
                    }
                ],
                "abc": [
                    0.73396675,
                    0.26603325,
                    0.25
                ],
                "xyz": [
                    2.8435120074999998,
                    -2.57714566977735,
                    1.38775082
                ],
                "label": "Rb",
                "properties": {}
            },
            {
                "species": [
                    {
                        "element": "Rb",
                        "occu": 1
                    }
                ],
                "abc": [
                    0.26603325,
                    0.73396675,
                    0.75
                ],
                "xyz": [
                    2.6699209825,
                    2.57714566977735,
                    4.17277122
                ],
                "label": "Rb",
                "properties": {}
            },
            {
                "species": [
                    {
                        "element": "Na",
                        "occu": 1
                    }
                ],
                "abc": [
                    0.42467023,
                    0.57532977,
                    0.25
                ],
                "xyz": [
                    2.8435120074999993,
                    0.8297580342541138,
                    1.38775082
                ],
                "label": "Na",
                "properties": {}
            },
            {
                "species": [
                    {
                        "element": "Na",
                        "occu": 1
                    }
                ],
                "abc": [
                    0.57532977,
                    0.42467023,
                    0.75
                ],
                "xyz": [
                    2.6699209824999994,
                    -0.8297580342541138,
                    4.17277122
                ],
                "label": "Na",
                "properties": {}
            },
            {
                "species": [
                    {
                        "element": "Ti",
                        "occu": 1
                    }
                ],
                "abc": [
                    0.94821035,
                    0.05178965,
                    0.75
                ],
                "xyz": [
                    2.6699209825,
                    -4.937040680574871,
                    4.17277122
                ],
                "label": "Ti",
                "properties": {}
            },
            {
                "species": [
                    {
                        "element": "Ti",
                        "occu": 1
                    }
                ],
                "abc": [
                    0.05178965,
                    0.94821035,
                    0.25
                ],
                "xyz": [
                    2.8435120074999998,
                    4.937040680574871,
                    1.38775082
                ],
                "label": "Ti",
                "properties": {}
            },
            {
                "species": [
                    {
                        "element": "O",
                        "occu": 1
                    }
                ],
                "abc": [
                    0.20612144,
                    0.23205251,
                    0.49923824
                ],
                "xyz": [
                    1.110657865151512,
                    0.14281547434238706,
                    2.778691929386041
                ],
                "label": "O",
                "properties": {}
            },
            {
                "species": [
                    {
                        "element": "O",
                        "occu": 1
                    }
                ],
                "abc": [
                    0.76794749,
                    0.79387856,
                    0.00076176
                ],
                "xyz": [
                    4.5763661498484876,
                    0.14281547434238728,
                    -0.0031902893860409993
                ],
                "label": "O",
                "properties": {}
            },
            {
                "species": [
                    {
                        "element": "O",
                        "occu": 1
                    }
                ],
                "abc": [
                    0.78404229,
                    0.21595771,
                    0.75
                ],
                "xyz": [
                    2.6699209825000003,
                    -3.1287281534967786,
                    4.17277122
                ],
                "label": "O",
                "properties": {}
            },
            {
                "species": [
                    {
                        "element": "O",
                        "occu": 1
                    }
                ],
                "abc": [
                    0.79387856,
                    0.76794749,
                    0.50076176
                ],
                "xyz": [
                    4.402775124848487,
                    -0.14281547434238728,
                    2.7818301106139587
                ],
                "label": "O",
                "properties": {}
            },
            {
                "species": [
                    {
                        "element": "O",
                        "occu": 1
                    }
                ],
                "abc": [
                    0.23205251,
                    0.20612144,
                    0.99923824
                ],
                "xyz": [
                    0.9370668401515119,
                    -0.14281547434238706,
                    5.563712329386041
                ],
                "label": "O",
                "properties": {}
            },
            {
                "species": [
                    {
                        "element": "O",
                        "occu": 1
                    }
                ],
                "abc": [
                    0.21595771,
                    0.78404229,
                    0.25
                ],
                "xyz": [
                    2.8435120075,
                    3.1287281534967786,
                    1.38775082
                ],
                "label": "O",
                "properties": {}
            }
        ]
    },
    "spacegroup": {
        "source": "spglib",
        "symbol": "C2/c",
        "number": 15,
        "point_group": "2/m",
        "crystal_system": "monoclinic",
        "hall": "-C 2yc"
    },
    "dielectric": {
        "epsilon_ionic": [
            [
                4.32120718,
                0.0,
                -0.49782863
            ],
            [
                0.0,
                5.00941296,
                4e-08
            ],
            [
                -0.49782863,
                4e-08,
                9.21554688
            ]
        ],
        "epsilon_ionic_avg": 6.1820556733333305,
        "epsilon_ionic_eig": [
            9.265670288629565,
            4.27108377137043,
            5.009412959999997
        ],
        "epsilon_electronic": [
            [
                2.9653913,
                0.0,
                -0.05669596
            ],
            [
                0.0,
                3.31990271,
                0.0
            ],
            [
                -0.05669456,
                0.0,
                3.95917577
            ]
        ],
        "epsilon_electronic_avg": 3.41482326,
        "epsilon_electronic_eig": [
            2.962167302800651,
            3.9623997671993485,
            3.31990271
        ]
    },
    "phonon": {
        "lowest_freq": -0.03756980711326361,
        "frequency": [
            -0.03756980711326361,
            -0.008050572790461367,
            -0.007904247102660324,
            1.2747846100282143,
            2.1323974357886364,
            2.778489295357781,
            2.8176468861823203,
            2.8197122803779124,
            3.240488728414295,
            3.935688653230674,
            4.833103861164286,
            5.003794712641585,
            6.24436498589931,
            6.484508615096424,
            6.600086353228584,
            6.695434552033693,
            6.816654984004229,
            6.8942148214562495,
            6.963308364624708,
            7.5111288120486295,
            7.9787923275517265,
            8.293691158565476,
            9.385667158520508,
            9.395089510126443,
            11.38973386757575,
            12.044654815030041,
            12.366945524952795,
            12.567269335440614,
            12.941441261823275,
            15.53857937113412,
            17.86890207243975,
            18.644666400404255,
            18.648173855171475,
            19.600817277414862,
            22.85488074711815,
            23.86493394754261
        ]
    },
    "born_effective_charge": {
        "avg_abs_trace": 1.996622222222222,
        "tensors": [
            [
                [
                    1.26971,
                    1e-05,
                    0.02813
                ],
                [
                    0.0,
                    1.15736,
                    0.0
                ],
                [
                    0.02766,
                    -0.0002,
                    1.25804
                ]
            ],
            [
                [
                    1.26971,
                    -1e-05,
                    0.02813
                ],
                [
                    0.0,
                    1.15764,
                    0.0
                ],
                [
                    0.02766,
                    0.0002,
                    1.25804
                ]
            ],
            [
                [
                    1.32201,
                    -1e-05,
                    0.00152
                ],
                [
                    0.0,
                    1.13643,
                    0.0
                ],
                [
                    0.01743,
                    2e-05,
                    0.98426
                ]
            ],
            [
                [
                    1.32201,
                    1e-05,
                    0.00152
                ],
                [
                    0.0,
                    1.13646,
                    0.0
                ],
                [
                    0.01743,
                    -2e-05,
                    0.98426
                ]
            ],
            [
                [
                    2.29184,
                    -0.0002,
                    -0.24841
                ],
                [
                    0.0,
                    3.08325,
                    0.0
                ],
                [
                    -0.30156,
                    4e-05,
                    5.46589
                ]
            ],
            [
                [
                    2.29184,
                    0.0002,
                    -0.24841
                ],
                [
                    0.0,
                    3.08455,
                    0.0
                ],
                [
                    -0.30156,
                    -4e-05,
                    5.46589
                ]
            ],
            [
                [
                    -1.83159,
                    -0.07653,
                    0.0851
                ],
                [
                    -0.13797,
                    -1.21877,
                    -0.52223
                ],
                [
                    0.07492,
                    -0.90423,
                    -3.18295
                ]
            ],
            [
                [
                    -1.83165,
                    0.07615,
                    0.08571
                ],
                [
                    0.13797,
                    -1.21877,
                    0.52223
                ],
                [
                    0.07452,
                    0.90364,
                    -3.18278
                ]
            ],
            [
                [
                    -1.22033,
                    -3e-05,
                    0.04796
                ],
                [
                    0.0,
                    -2.93992,
                    0.0
                ],
                [
                    0.10703,
                    0.0003,
                    -1.34246
                ]
            ],
            [
                [
                    -1.83165,
                    -0.07615,
                    0.08571
                ],
                [
                    -0.13787,
                    -1.21872,
                    -0.52217
                ],
                [
                    0.07452,
                    -0.90364,
                    -3.18278
                ]
            ],
            [
                [
                    -1.83159,
                    0.07653,
                    0.0851
                ],
                [
                    0.13787,
                    -1.21872,
                    0.52217
                ],
                [
                    0.07492,
                    0.90423,
                    -3.18295
                ]
            ],
            [
                [
                    -1.22033,
                    3e-05,
                    0.04796
                ],
                [
                    0.0,
                    -2.94079,
                    0.0
                ],
                [
                    0.10703,
                    -0.0003,
                    -1.34246
                ]
            ]
        ]
    },
    "band_gap": 3.6651,
    "is_direct": false,
    "formula": "RbNaTiO3"
}