{
    "mp_id": "mp-504554",
    "nelements": 3,
    "nsites": 24,
    "elements": [
        "Ba",
        "O",
        "Ta"
    ],
    "structure": {
        "@module": "pymatgen.core.structure",
        "@class": "Structure",
        "charge": null,
        "lattice": {
            "matrix": [
                [
                    5.79529979,
                    0.0,
                    0.0
                ],
                [
                    -2.89764989,
                    5.01887653,
                    0.0
                ],
                [
                    0.0,
                    0.0,
                    11.85743687
                ]
            ],
            "a": 5.79529979,
            "b": 5.795299518437495,
            "c": 11.85743687,
            "alpha": 90.0,
            "beta": 90.0,
            "gamma": 120.0000014930062,
            "volume": 344.88415310234546
        },
        "sites": [
            {
                "species": [
                    {
                        "element": "Ba",
                        "occu": 1
                    }
                ],
                "abc": [
                    0.333333,
                    0.666667,
                    0.78581249
                ],
                "xyz": [
                    -2.8943165599759624e-06,
                    3.34591935962551,
                    9.317721991832506
                ],
                "label": "Ba",
                "properties": {}
            },
            {
                "species": [
                    {
                        "element": "Ba",
                        "occu": 1
                    }
                ],
                "abc": [
                    0.0,
                    0.0,
                    0.0
                ],
                "xyz": [
                    0.0,
                    0.0,
                    0.0
                ],
                "label": "Ba",
                "properties": {}
            },
            {
                "species": [
                    {
                        "element": "Ba",
                        "occu": 1
                    }
                ],
                "abc": [
                    0.666667,
                    0.333333,
                    0.56686263
                ],
                "xyz": [
                    2.89765279431656,
                    1.6729571703744899,
                    6.721537849187169
                ],
                "label": "Ba",
                "properties": {}
            },
            {
                "species": [
                    {
                        "element": "Ba",
                        "occu": 1
                    }
                ],
                "abc": [
                    0.333333,
                    0.666667,
                    0.43313737
                ],
                "xyz": [
                    -2.8943165599759624e-06,
                    3.34591935962551,
                    5.135899020812833
                ],
                "label": "Ba",
                "properties": {}
            },
            {
                "species": [
                    {
                        "element": "Ba",
                        "occu": 1
                    }
                ],
                "abc": [
                    0.666667,
                    0.333333,
                    0.21418751
                ],
                "xyz": [
                    2.89765279431656,
                    1.6729571703744899,
                    2.539714878167494
                ],
                "label": "Ba",
                "properties": {}
            },
            {
                "species": [
                    {
                        "element": "Ta",
                        "occu": 1
                    }
                ],
                "abc": [
                    0.666667,
                    0.333333,
                    0.89716413
                ],
                "xyz": [
                    2.89765279431656,
                    1.6729571703744899,
                    10.638067033503473
                ],
                "label": "Ta",
                "properties": {}
            },
            {
                "species": [
                    {
                        "element": "Ta",
                        "occu": 1
                    }
                ],
                "abc": [
                    0.333333,
                    0.666667,
                    0.10283587
                ],
                "xyz": [
                    -2.8943165599759624e-06,
                    3.34591935962551,
                    1.2193698364965269
                ],
                "label": "Ta",
                "properties": {}
            },
            {
                "species": [
                    {
                        "element": "Ta",
                        "occu": 1
                    }
                ],
                "abc": [
                    0.0,
                    0.0,
                    0.68786774
                ],
                "xyz": [
                    0.0,
                    0.0,
                    8.156348301959573
                ],
                "label": "Ta",
                "properties": {}
            },
            {
                "species": [
                    {
                        "element": "Ta",
                        "occu": 1
                    }
                ],
                "abc": [
                    0.0,
                    0.0,
                    0.31213226
                ],
                "xyz": [
                    0.0,
                    0.0,
                    3.701088568040426
                ],
                "label": "Ta",
                "properties": {}
            },
            {
                "species": [
                    {
                        "element": "O",
                        "occu": 1
                    }
                ],
                "abc": [
                    0.32863583,
                    0.16431742,
                    0.38671104
                ],
                "xyz": [
                    1.4284088025973918,
                    0.8246888427081526,
                    4.585401743732045
                ],
                "label": "O",
                "properties": {}
            },
            {
                "species": [
                    {
                        "element": "O",
                        "occu": 1
                    }
                ],
                "abc": [
                    0.83240163,
                    0.66480326,
                    0.8090096
                ],
                "xyz": [
                    2.897649898324016,
                    3.336565478681488,
                    9.592780259223952
                ],
                "label": "O",
                "properties": {}
            },
            {
                "species": [
                    {
                        "element": "O",
                        "occu": 1
                    }
                ],
                "abc": [
                    0.83568258,
                    0.16431742,
                    0.38671104
                ],
                "xyz": [
                    4.366896726392574,
                    0.8246888427081526,
                    4.585401743732045
                ],
                "label": "O",
                "properties": {}
            },
            {
                "species": [
                    {
                        "element": "O",
                        "occu": 1
                    }
                ],
                "abc": [
                    0.83240163,
                    0.16759837,
                    0.8090096
                ],
                "xyz": [
                    4.338375593139978,
                    0.8411555256592561,
                    9.592780259223952
                ],
                "label": "O",
                "properties": {}
            },
            {
                "species": [
                    {
                        "element": "O",
                        "occu": 1
                    }
                ],
                "abc": [
                    0.16431742,
                    0.32863583,
                    0.61328896
                ],
                "xyz": [
                    -2.867030217013067e-06,
                    1.64938265410407,
                    7.272035126267956
                ],
                "label": "O",
                "properties": {}
            },
            {
                "species": [
                    {
                        "element": "O",
                        "occu": 1
                    }
                ],
                "abc": [
                    0.5,
                    0.5,
                    0.0
                ],
                "xyz": [
                    1.44882495,
                    2.509438265,
                    0.0
                ],
                "label": "O",
                "properties": {}
            },
            {
                "species": [
                    {
                        "element": "O",
                        "occu": 1
                    }
                ],
                "abc": [
                    0.0,
                    0.5,
                    0.0
                ],
                "xyz": [
                    -1.448824945,
                    2.509438265,
                    0.0
                ],
                "label": "O",
                "properties": {}
            },
            {
                "species": [
                    {
                        "element": "O",
                        "occu": 1
                    }
                ],
                "abc": [
                    0.83568258,
                    0.67136417,
                    0.38671104
                ],
                "xyz": [
                    2.897652767030216,
                    3.3694938758959303,
                    4.585401743732045
                ],
                "label": "O",
                "properties": {}
            },
            {
                "species": [
                    {
                        "element": "O",
                        "occu": 1
                    }
                ],
                "abc": [
                    0.5,
                    0.0,
                    0.0
                ],
                "xyz": [
                    2.897649895,
                    0.0,
                    0.0
                ],
                "label": "O",
                "properties": {}
            },
            {
                "species": [
                    {
                        "element": "O",
                        "occu": 1
                    }
                ],
                "abc": [
                    0.66480326,
                    0.83240163,
                    0.1909904
                ],
                "xyz": [
                    1.4407257014639945,
                    4.177721004340744,
                    2.2646566107760484
                ],
                "label": "O",
                "properties": {}
            },
            {
                "species": [
                    {
                        "element": "O",
                        "occu": 1
                    }
                ],
                "abc": [
                    0.33519674,
                    0.16759837,
                    0.8090096
                ],
                "xyz": [
                    1.4569241985360053,
                    0.8411555256592561,
                    9.592780259223952
                ],
                "label": "O",
                "properties": {}
            },
            {
                "species": [
                    {
                        "element": "O",
                        "occu": 1
                    }
                ],
                "abc": [
                    0.16759837,
                    0.83240163,
                    0.1909904
                ],
                "xyz": [
                    -1.4407256931399783,
                    4.177721004340744,
                    2.2646566107760484
                ],
                "label": "O",
                "properties": {}
            },
            {
                "species": [
                    {
                        "element": "O",
                        "occu": 1
                    }
                ],
                "abc": [
                    0.16759837,
                    0.33519674,
                    0.1909904
                ],
                "xyz": [
                    1.6759837961899393e-09,
                    1.6823110513185122,
                    2.2646566107760484
                ],
                "label": "O",
                "properties": {}
            },
            {
                "species": [
                    {
                        "element": "O",
                        "occu": 1
                    }
                ],
                "abc": [
                    0.16431742,
                    0.83568258,
                    0.61328896
                ],
                "xyz": [
                    -1.4692468263925744,
                    4.194187687291847,
                    7.272035126267956
                ],
                "label": "O",
                "properties": {}
            },
            {
                "species": [
                    {
                        "element": "O",
                        "occu": 1
                    }
                ],
                "abc": [
                    0.67136417,
                    0.83568258,
                    0.61328896
                ],
                "xyz": [
                    1.469241097402608,
                    4.194187687291847,
                    7.272035126267956
                ],
                "label": "O",
                "properties": {}
            }
        ]
    },
    "spacegroup": {
        "source": "spglib",
        "symbol": "P-3m1",
        "number": 164,
        "point_group": "-3m",
        "crystal_system": "trigonal",
        "hall": "-P 3 2\""
    },
    "dielectric": {
        "epsilon_ionic": [
            [
                27.6166613,
                -1e-08,
                -0.0
            ],
            [
                -1e-08,
                27.61721515,
                8.026e-05
            ],
            [
                -0.0,
                8.026e-05,
                12.64517244
            ]
        ],
        "epsilon_ionic_avg": 22.626349630000004,
        "epsilon_ionic_eig": [
            27.61666129999982,
            27.617215150430436,
            12.645172439569752
        ],
        "epsilon_electronic": [
            [
                4.8594411,
                0.0,
                0.0
            ],
            [
                0.0,
                4.85944105,
                0.0
            ],
            [
                0.0,
                0.0,
                4.40443854
            ]
        ],
        "epsilon_electronic_avg": 4.707773563333333,
        "epsilon_electronic_eig": [
            4.8594411,
            4.85944105,
            4.40443854
        ]
    },
    "phonon": {
        "lowest_freq": -0.056618272167101184,
        "frequency": [
            -0.056618272167101184,
            -0.043997516762915086,
            -0.04399751656849491,
            1.7167957353400851,
            2.049628752214639,
            2.049628764138756,
            2.133394334492505,
            2.213507062692074,
            2.2135070737333824,
            2.910668119430519,
            3.134107603775005,
            3.1588693734995497,
            3.158869388973449,
            3.167275811038648,
            3.167275826471477,
            3.507116221613231,
            3.620299441744822,
            3.730830124417826,
            3.9855628237691265,
            4.01517996753227,
            4.015179979706077,
            4.039383322100425,
            4.0393833372265044,
            4.2534593131412795,
            4.253459330379023,
            4.494273516609242,
            4.494273535642362,
            4.954213259879032,
            4.954213284544919,
            5.371237633678245,
            5.565169472310716,
            6.582784274440489,
            6.947262071983631,
            6.947262089573304,
            7.126796679656849,
            7.157015397976747,
            7.157015415050913,
            7.180478706644424,
            7.180478723662797,
            8.317823228563482,
            8.317823243254836,
            8.41612285838183,
            8.501133160533366,
            8.501133160533366,
            9.133632676489558,
            9.133632689868689,
            9.29765531485757,
            10.558051947483623,
            10.558051947483623,
            11.292862233226371,
            11.292862244047374,
            12.123213492905798,
            12.188134872378916,
            12.188134882405064,
            12.493377232779439,
            12.605571737116177,
            12.901845806804833,
            15.96224809743411,
            15.96224809743411,
            16.797621588670342,
            16.797621661418777,
            16.85754974985165,
            16.85754974985165,
            17.569458405656075,
            19.164579263447248,
            19.164579263447248,
            19.380094259727343,
            19.380094322781765,
            22.36743439975611,
            23.50370102097284,
            24.16891071050111,
            24.393885941751687
        ]
    },
    "born_effective_charge": {
        "avg_abs_trace": 3.313192361111111,
        "tensors": [
            [
                [
                    2.87111,
                    -0.00011,
                    -0.00017
                ],
                [
                    -0.0,
                    2.87144,
                    -8e-05
                ],
                [
                    -0.0,
                    0.0,
                    2.45938
                ]
            ],
            [
                [
                    2.83888,
                    0.0,
                    -0.0
                ],
                [
                    -0.0,
                    2.83882,
                    0.00014
                ],
                [
                    -0.0,
                    0.0,
                    2.21096
                ]
            ],
            [
                [
                    2.91024,
                    5e-05,
                    -5e-05
                ],
                [
                    -0.0,
                    2.91041,
                    -0.00031
                ],
                [
                    -0.0,
                    0.0,
                    3.42341
                ]
            ],
            [
                [
                    2.91024,
                    -5e-05,
                    5e-05
                ],
                [
                    -0.0,
                    2.91048,
                    -0.00026
                ],
                [
                    -0.0,
                    0.0,
                    3.42398
                ]
            ],
            [
                [
                    2.87111,
                    0.00011,
                    0.00017
                ],
                [
                    -0.0,
                    2.8714,
                    0.00032
                ],
                [
                    -0.0,
                    0.0,
                    2.4587
                ]
            ],
            [
                [
                    7.41879,
                    0.00035,
                    -0.00013
                ],
                [
                    -0.0,
                    7.41855,
                    -0.00018
                ],
                [
                    -0.0,
                    0.0,
                    5.94993
                ]
            ],
            [
                [
                    7.41879,
                    -0.00035,
                    0.00013
                ],
                [
                    -0.0,
                    7.41859,
                    0.00043
                ],
                [
                    -0.0,
                    0.0,
                    5.94983
                ]
            ],
            [
                [
                    6.25415,
                    0.00027,
                    -0.00043
                ],
                [
                    -0.0,
                    6.25397,
                    0.0001
                ],
                [
                    -0.0,
                    0.0,
                    4.95202
                ]
            ],
            [
                [
                    6.25415,
                    -0.00027,
                    0.00043
                ],
                [
                    -0.0,
                    6.25388,
                    0.00095
                ],
                [
                    -0.0,
                    0.0,
                    4.95171
                ]
            ],
            [
                [
                    -2.95139,
                    -0.72905,
                    -0.63959
                ],
                [
                    -0.72911,
                    -2.1096,
                    -0.36938
                ],
                [
                    -0.7089,
                    -0.40928,
                    -2.19617
                ]
            ],
            [
                [
                    -1.81508,
                    -0.00016,
                    0.00028
                ],
                [
                    -0.0,
                    -3.98489,
                    1.49863
                ],
                [
                    -0.0,
                    1.2694,
                    -2.46504
                ]
            ],
            [
                [
                    -2.95135,
                    0.7293,
                    0.63957
                ],
                [
                    0.72911,
                    -2.1096,
                    -0.36938
                ],
                [
                    0.7089,
                    -0.40928,
                    -2.19617
                ]
            ],
            [
                [
                    -3.44266,
                    0.9396,
                    1.29803
                ],
                [
                    0.93943,
                    -2.3577,
                    -0.74935
                ],
                [
                    1.09933,
                    -0.6347,
                    -2.46504
                ]
            ],
            [
                [
                    -1.68861,
                    -0.00028,
                    0.0003
                ],
                [
                    -0.0,
                    -3.37249,
                    0.7385
                ],
                [
                    0.0,
                    0.81824,
                    -2.19569
                ]
            ],
            [
                [
                    -3.61829,
                    0.97597,
                    1.46752
                ],
                [
                    0.97636,
                    -2.49094,
                    -0.84715
                ],
                [
                    1.27091,
                    -0.73376,
                    -2.60478
                ]
            ],
            [
                [
                    -3.61829,
                    -0.97597,
                    -1.46752
                ],
                [
                    -0.97636,
                    -2.49094,
                    -0.84715
                ],
                [
                    -1.27091,
                    -0.73376,
                    -2.60478
                ]
            ],
            [
                [
                    -1.68861,
                    0.00028,
                    -0.0003
                ],
                [
                    -0.0,
                    -3.37256,
                    0.73831
                ],
                [
                    0.0,
                    0.81856,
                    -2.19617
                ]
            ],
            [
                [
                    -1.92775,
                    0.0,
                    -0.0
                ],
                [
                    -0.0,
                    -4.18174,
                    1.69427
                ],
                [
                    -0.0,
                    1.46753,
                    -2.60478
                ]
            ],
            [
                [
                    -3.44266,
                    -0.9396,
                    -1.29803
                ],
                [
                    -0.93951,
                    -2.35773,
                    -0.74968
                ],
                [
                    -1.09941,
                    -0.63474,
                    -2.46495
                ]
            ],
            [
                [
                    -3.44249,
                    -0.93976,
                    -1.29785
                ],
                [
                    -0.93943,
                    -2.3577,
                    -0.74935
                ],
                [
                    -1.09933,
                    -0.6347,
                    -2.46504
                ]
            ],
            [
                [
                    -3.44249,
                    0.93976,
                    1.29785
                ],
                [
                    0.93951,
                    -2.35773,
                    -0.74968
                ],
                [
                    1.09941,
                    -0.63474,
                    -2.46495
                ]
            ],
            [
                [
                    -1.81508,
                    0.00016,
                    -0.00028
                ],
                [
                    -0.0,
                    -3.98493,
                    1.49843
                ],
                [
                    -0.0,
                    1.26949,
                    -2.46495
                ]
            ],
            [
                [
                    -2.95139,
                    0.72905,
                    0.63959
                ],
                [
                    0.729,
                    -2.1095,
                    -0.36906
                ],
                [
                    0.70862,
                    -0.40912,
                    -2.19569
                ]
            ],
            [
                [
                    -2.95135,
                    -0.7293,
                    -0.63957
                ],
                [
                    -0.729,
                    -2.1095,
                    -0.36906
                ],
                [
                    -0.70862,
                    -0.40912,
                    -2.19569
                ]
            ]
        ]
    },
    "band_gap": 3.0824,
    "is_direct": false,
    "formula": "Ba5Ta4O15"
}