{
    "mp_id": "mp-558941",
    "nelements": 4,
    "nsites": 28,
    "elements": [
        "Li",
        "O",
        "Si",
        "Y"
    ],
    "structure": {
        "@module": "pymatgen.core.structure",
        "@class": "Structure",
        "charge": null,
        "lattice": {
            "matrix": [
                [
                    5.39553521,
                    0.0,
                    -0.00018842
                ],
                [
                    0.0,
                    6.17132103,
                    0.0
                ],
                [
                    -4.32472324,
                    0.0,
                    9.90316443
                ]
            ],
            "a": 5.395535213289952,
            "b": 6.17132103,
            "c": 10.806289688427444,
            "alpha": 90.0,
            "beta": 113.59294964523207,
            "gamma": 90.0,
            "volume": 329.74638017610255
        },
        "sites": [
            {
                "species": [
                    {
                        "element": "Li",
                        "occu": 1
                    }
                ],
                "abc": [
                    0.08168058,
                    0.86620379,
                    0.43101753
                ],
                "xyz": [
                    -1.4233210834751753,
                    5.345621665492704,
                    4.268422081547574
                ],
                "label": "Li",
                "properties": {}
            },
            {
                "species": [
                    {
                        "element": "Li",
                        "occu": 1
                    }
                ],
                "abc": [
                    0.91831942,
                    0.36620379,
                    0.06898247
                ],
                "xyz": [
                    4.6564946734751755,
                    2.2599611504927033,
                    0.6829717134524258
                ],
                "label": "Li",
                "properties": {}
            },
            {
                "species": [
                    {
                        "element": "Li",
                        "occu": 1
                    }
                ],
                "abc": [
                    0.91831942,
                    0.13379621,
                    0.56898247
                ],
                "xyz": [
                    2.4941330534751756,
                    0.8256993645072962,
                    5.6345539284524255
                ],
                "label": "Li",
                "properties": {}
            },
            {
                "species": [
                    {
                        "element": "Li",
                        "occu": 1
                    }
                ],
                "abc": [
                    0.08168058,
                    0.63379621,
                    0.93101753
                ],
                "xyz": [
                    -3.5856827034751753,
                    3.911359879507296,
                    9.220004296547573
                ],
                "label": "Li",
                "properties": {}
            },
            {
                "species": [
                    {
                        "element": "Y",
                        "occu": 1
                    }
                ],
                "abc": [
                    0.55341578,
                    0.88262715,
                    0.84767234
                ],
                "xyz": [
                    -0.6799739419435675,
                    5.446975492443964,
                    8.394534291181598
                ],
                "label": "Y",
                "properties": {}
            },
            {
                "species": [
                    {
                        "element": "Y",
                        "occu": 1
                    }
                ],
                "abc": [
                    0.44658422,
                    0.11737285,
                    0.15232766
                ],
                "xyz": [
                    1.7507859119435678,
                    0.7243455375560355,
                    1.5084417188184016
                ],
                "label": "Y",
                "properties": {}
            },
            {
                "species": [
                    {
                        "element": "Y",
                        "occu": 1
                    }
                ],
                "abc": [
                    0.44658422,
                    0.38262715,
                    0.65232766
                ],
                "xyz": [
                    -0.4115757080564322,
                    2.3613149774439646,
                    6.460023933818402
                ],
                "label": "Y",
                "properties": {}
            },
            {
                "species": [
                    {
                        "element": "Y",
                        "occu": 1
                    }
                ],
                "abc": [
                    0.55341578,
                    0.61737285,
                    0.34767234
                ],
                "xyz": [
                    1.4823876780564325,
                    3.810006052556035,
                    3.4429520761815993
                ],
                "label": "Y",
                "properties": {}
            },
            {
                "species": [
                    {
                        "element": "Si",
                        "occu": 1
                    }
                ],
                "abc": [
                    0.09506896,
                    0.34917288,
                    0.35889748
                ],
                "xyz": [
                    -1.0391843514753536,
                    2.1548579374496666,
                    3.5542028450591934
                ],
                "label": "Si",
                "properties": {}
            },
            {
                "species": [
                    {
                        "element": "Si",
                        "occu": 1
                    }
                ],
                "abc": [
                    0.90493104,
                    0.65082712,
                    0.64110252
                ],
                "xyz": [
                    2.1099963214753537,
                    4.0164630925503335,
                    6.348773164940807
                ],
                "label": "Si",
                "properties": {}
            },
            {
                "species": [
                    {
                        "element": "Si",
                        "occu": 1
                    }
                ],
                "abc": [
                    0.90493104,
                    0.84917288,
                    0.14110252
                ],
                "xyz": [
                    4.272357941475353,
                    5.240518452449666,
                    1.397190949940807
                ],
                "label": "Si",
                "properties": {}
            },
            {
                "species": [
                    {
                        "element": "Si",
                        "occu": 1
                    }
                ],
                "abc": [
                    0.09506896,
                    0.15082712,
                    0.85889748
                ],
                "xyz": [
                    -3.201545971475354,
                    0.9308025775503336,
                    8.505785060059194
                ],
                "label": "Si",
                "properties": {}
            },
            {
                "species": [
                    {
                        "element": "O",
                        "occu": 1
                    }
                ],
                "abc": [
                    0.76657182,
                    0.139612,
                    0.77536833
                ],
                "xyz": [
                    0.7828118094927925,
                    0.8615904716403601,
                    7.678455628342178
                ],
                "label": "O",
                "properties": {}
            },
            {
                "species": [
                    {
                        "element": "O",
                        "occu": 1
                    }
                ],
                "abc": [
                    0.76657182,
                    0.360388,
                    0.27536833
                ],
                "xyz": [
                    2.945173429492793,
                    2.2240700433596396,
                    2.7268734133421777
                ],
                "label": "O",
                "properties": {}
            },
            {
                "species": [
                    {
                        "element": "O",
                        "occu": 1
                    }
                ],
                "abc": [
                    0.81419846,
                    0.83681448,
                    0.52361108
                ],
                "xyz": [
                    2.128563452460277,
                    5.164250798632514,
                    5.185253211336052
                ],
                "label": "O",
                "properties": {}
            },
            {
                "species": [
                    {
                        "element": "O",
                        "occu": 1
                    }
                ],
                "abc": [
                    0.24119987,
                    0.16103358,
                    0.75118894
                ],
                "xyz": [
                    -1.947281875216543,
                    0.9937899187901874,
                    7.4391021439379
                ],
                "label": "O",
                "properties": {}
            },
            {
                "species": [
                    {
                        "element": "O",
                        "occu": 1
                    }
                ],
                "abc": [
                    0.23342818,
                    0.860388,
                    0.22463167
                ],
                "xyz": [
                    0.2880001605072071,
                    5.30973055835964,
                    2.2245203816578227
                ],
                "label": "O",
                "properties": {}
            },
            {
                "species": [
                    {
                        "element": "O",
                        "occu": 1
                    }
                ],
                "abc": [
                    0.77194438,
                    0.4270246,
                    0.55435055
                ],
                "xyz": [
                    1.767640375759838,
                    2.6353058943073377,
                    5.489679198750857
                ],
                "label": "O",
                "properties": {}
            },
            {
                "species": [
                    {
                        "element": "O",
                        "occu": 1
                    }
                ],
                "abc": [
                    0.24119987,
                    0.33896642,
                    0.25118894
                ],
                "xyz": [
                    0.21507974478345715,
                    2.0918705962098123,
                    2.4875199289378993
                ],
                "label": "O",
                "properties": {}
            },
            {
                "species": [
                    {
                        "element": "O",
                        "occu": 1
                    }
                ],
                "abc": [
                    0.22805562,
                    0.5729754,
                    0.44564945
                ],
                "xyz": [
                    -0.6968284057598377,
                    3.536015135692662,
                    4.413296811249143
                ],
                "label": "O",
                "properties": {}
            },
            {
                "species": [
                    {
                        "element": "O",
                        "occu": 1
                    }
                ],
                "abc": [
                    0.22805562,
                    0.9270246,
                    0.94564945
                ],
                "xyz": [
                    -2.8591900257598377,
                    5.720966409307337,
                    9.364879026249143
                ],
                "label": "O",
                "properties": {}
            },
            {
                "species": [
                    {
                        "element": "O",
                        "occu": 1
                    }
                ],
                "abc": [
                    0.18580154,
                    0.33681448,
                    0.97638892
                ],
                "xyz": [
                    -3.220113102460277,
                    2.0785902836325145,
                    9.66930501366395
                ],
                "label": "O",
                "properties": {}
            },
            {
                "species": [
                    {
                        "element": "O",
                        "occu": 1
                    }
                ],
                "abc": [
                    0.75880013,
                    0.83896642,
                    0.24881106
                ],
                "xyz": [
                    3.018093845216543,
                    5.177531111209812,
                    2.463873866062101
                ],
                "label": "O",
                "properties": {}
            },
            {
                "species": [
                    {
                        "element": "O",
                        "occu": 1
                    }
                ],
                "abc": [
                    0.77194438,
                    0.0729754,
                    0.05435055
                ],
                "xyz": [
                    3.930001995759838,
                    0.45035462069266197,
                    0.5380969837508569
                ],
                "label": "O",
                "properties": {}
            },
            {
                "species": [
                    {
                        "element": "O",
                        "occu": 1
                    }
                ],
                "abc": [
                    0.81419846,
                    0.66318552,
                    0.02361108
                ],
                "xyz": [
                    4.2909250724602765,
                    4.092730746367486,
                    0.2336709963360512
                ],
                "label": "O",
                "properties": {}
            },
            {
                "species": [
                    {
                        "element": "O",
                        "occu": 1
                    }
                ],
                "abc": [
                    0.75880013,
                    0.66103358,
                    0.74881106
                ],
                "xyz": [
                    0.8557322252165434,
                    4.079450433790187,
                    7.415456081062101
                ],
                "label": "O",
                "properties": {}
            },
            {
                "species": [
                    {
                        "element": "O",
                        "occu": 1
                    }
                ],
                "abc": [
                    0.23342818,
                    0.639612,
                    0.72463167
                ],
                "xyz": [
                    -1.8743614594927924,
                    3.9472509866403596,
                    7.176102596657822
                ],
                "label": "O",
                "properties": {}
            },
            {
                "species": [
                    {
                        "element": "O",
                        "occu": 1
                    }
                ],
                "abc": [
                    0.18580154,
                    0.16318552,
                    0.47638892
                ],
                "xyz": [
                    -1.0577514824602774,
                    1.0070702313674855,
                    4.7177227986639485
                ],
                "label": "O",
                "properties": {}
            }
        ]
    },
    "spacegroup": {
        "source": "spglib",
        "symbol": "P2_1/c",
        "number": 14,
        "point_group": "2/m",
        "crystal_system": "monoclinic",
        "hall": "-P 2ybc"
    },
    "dielectric": {
        "epsilon_ionic": [
            [
                6.86943296,
                -1e-08,
                -0.82566311
            ],
            [
                -1e-08,
                4.15907677,
                -1e-08
            ],
            [
                -0.82566311,
                -1e-08,
                5.99519532
            ]
        ],
        "epsilon_ionic_avg": 5.674568349999999,
        "epsilon_ionic_eig": [
            7.366547747837493,
            5.498080532162501,
            4.15907677
        ],
        "epsilon_electronic": [
            [
                3.2957737,
                0.0,
                0.0241434
            ],
            [
                0.0,
                3.05860672,
                0.0
            ],
            [
                0.02414202,
                0.0,
                3.21842655
            ]
        ],
        "epsilon_electronic_avg": 3.190935656666667,
        "epsilon_electronic_eig": [
            3.3026908680181677,
            3.2115093819818323,
            3.05860672
        ]
    },
    "phonon": {
        "lowest_freq": -0.034276456357608176,
        "frequency": [
            -0.034276456357608176,
            -0.030528561800385694,
            -0.023207681470489874,
            2.5057097801443384,
            2.722558426180688,
            4.103834984154642,
            4.236401501991275,
            4.2693669832299355,
            4.731794003682243,
            5.0406070683492885,
            5.0611371991099325,
            5.315444503408797,
            5.381114671343659,
            5.44615432539567,
            5.839454291254029,
            6.243378812702541,
            6.555054900298007,
            6.725499594197026,
            6.739604304295043,
            6.8450696569498835,
            7.0053992382888595,
            7.048829793777416,
            7.4991502858191375,
            7.7110371415746455,
            7.866209283494769,
            7.9036790335820974,
            7.988942280036225,
            8.048506094538624,
            8.343760975460716,
            8.371501745503439,
            8.579938415732203,
            8.625397600154084,
            8.736969825289945,
            9.251518855999096,
            9.417915862706035,
            9.645768604895556,
            9.730949916156364,
            9.945908563083577,
            10.106365828140628,
            10.37315380365303,
            10.493107787047386,
            10.697773565821514,
            10.753413741868458,
            11.01743501749409,
            11.190670876900624,
            11.371875762741288,
            12.077811253903466,
            12.246215280176708,
            12.747040932727883,
            13.36120513871157,
            13.655925691598947,
            13.803469987112113,
            13.913930662982608,
            14.32241713289504,
            14.41094604667255,
            14.416617109225664,
            14.827277476282623,
            14.969486310534124,
            15.342540638982383,
            15.53898009929003,
            15.780151890264625,
            15.896283102472633,
            16.107902651304432,
            16.179767832439545,
            17.120193261161344,
            17.469872517900185,
            17.601041305712304,
            17.917301709962487,
            24.319348449633363,
            24.418514015099998,
            24.765207976412785,
            24.77141554123088,
            25.018299667850425,
            25.592392171472675,
            25.63918679474075,
            25.835543092622096,
            26.45334720094933,
            26.588506440284842,
            26.616933837960993,
            26.83405234814428,
            27.561313370949104,
            27.956625231836135,
            29.215714835999652,
            29.429848053487163
        ]
    },
    "born_effective_charge": {
        "avg_abs_trace": 2.1763271428571427,
        "tensors": [
            [
                [
                    1.00073,
                    0.00217,
                    -0.05579
                ],
                [
                    0.03118,
                    1.19754,
                    -0.0446
                ],
                [
                    -0.06132,
                    0.02816,
                    1.05101
                ]
            ],
            [
                [
                    1.00074,
                    -0.00217,
                    -0.05579
                ],
                [
                    -0.03118,
                    1.19754,
                    0.0446
                ],
                [
                    -0.06132,
                    -0.02816,
                    1.05101
                ]
            ],
            [
                [
                    1.00074,
                    0.00217,
                    -0.05579
                ],
                [
                    0.03124,
                    1.19756,
                    -0.04458
                ],
                [
                    -0.06132,
                    0.02816,
                    1.05101
                ]
            ],
            [
                [
                    1.00073,
                    -0.00217,
                    -0.05579
                ],
                [
                    -0.03124,
                    1.19756,
                    0.04458
                ],
                [
                    -0.06132,
                    -0.02816,
                    1.05101
                ]
            ],
            [
                [
                    3.76447,
                    -0.12565,
                    0.03976
                ],
                [
                    -0.20947,
                    3.5143,
                    0.25172
                ],
                [
                    0.061,
                    0.38375,
                    3.54003
                ]
            ],
            [
                [
                    3.76441,
                    -0.12569,
                    0.03959
                ],
                [
                    -0.2097,
                    3.51457,
                    0.25199
                ],
                [
                    0.0612,
                    0.38362,
                    3.53995
                ]
            ],
            [
                [
                    3.76441,
                    0.12569,
                    0.03959
                ],
                [
                    0.20947,
                    3.5143,
                    -0.25172
                ],
                [
                    0.0612,
                    -0.38362,
                    3.53995
                ]
            ],
            [
                [
                    3.76447,
                    0.12565,
                    0.03976
                ],
                [
                    0.2097,
                    3.51457,
                    -0.25199
                ],
                [
                    0.061,
                    -0.38375,
                    3.54003
                ]
            ],
            [
                [
                    3.32733,
                    0.17785,
                    0.09386
                ],
                [
                    0.09572,
                    2.35022,
                    0.1166
                ],
                [
                    0.04997,
                    -0.12117,
                    3.10569
                ]
            ],
            [
                [
                    3.32734,
                    0.17786,
                    0.09384
                ],
                [
                    0.09572,
                    2.35028,
                    0.11663
                ],
                [
                    0.05,
                    -0.12118,
                    3.10569
                ]
            ],
            [
                [
                    3.32734,
                    -0.17786,
                    0.09384
                ],
                [
                    -0.09572,
                    2.35022,
                    -0.1166
                ],
                [
                    0.05,
                    0.12118,
                    3.10569
                ]
            ],
            [
                [
                    3.32733,
                    -0.17785,
                    0.09386
                ],
                [
                    -0.09572,
                    2.35028,
                    -0.11663
                ],
                [
                    0.04997,
                    0.12117,
                    3.10569
                ]
            ],
            [
                [
                    -2.52794,
                    -0.07157,
                    -0.47266
                ],
                [
                    -0.06382,
                    -1.78506,
                    0.50445
                ],
                [
                    -0.47669,
                    0.45655,
                    -1.71628
                ]
            ],
            [
                [
                    -2.52794,
                    0.07157,
                    -0.47266
                ],
                [
                    0.06378,
                    -1.78518,
                    -0.50464
                ],
                [
                    -0.47669,
                    -0.45655,
                    -1.71628
                ]
            ],
            [
                [
                    -1.34131,
                    -0.19112,
                    -0.11698
                ],
                [
                    -0.22262,
                    -1.81216,
                    0.00358
                ],
                [
                    -0.09242,
                    0.04311,
                    -2.11383
                ]
            ],
            [
                [
                    -2.30944,
                    -0.0543,
                    0.45954
                ],
                [
                    -0.10078,
                    -1.73246,
                    0.51573
                ],
                [
                    0.47935,
                    0.50879,
                    -1.85977
                ]
            ],
            [
                [
                    -2.52789,
                    -0.07155,
                    -0.47264
                ],
                [
                    -0.06378,
                    -1.78518,
                    0.50464
                ],
                [
                    -0.47668,
                    0.45657,
                    -1.71629
                ]
            ],
            [
                [
                    -1.91381,
                    -0.15197,
                    0.05241
                ],
                [
                    -0.15642,
                    -1.73275,
                    0.00118
                ],
                [
                    0.03993,
                    0.03395,
                    -2.00683
                ]
            ],
            [
                [
                    -2.30944,
                    0.0543,
                    0.45954
                ],
                [
                    0.10061,
                    -1.73245,
                    -0.51583
                ],
                [
                    0.47935,
                    -0.50879,
                    -1.85977
                ]
            ],
            [
                [
                    -1.91384,
                    -0.15202,
                    0.05236
                ],
                [
                    -0.15635,
                    -1.73246,
                    0.00153
                ],
                [
                    0.03999,
                    0.03392,
                    -2.00681
                ]
            ],
            [
                [
                    -1.91384,
                    0.15202,
                    0.05236
                ],
                [
                    0.15642,
                    -1.73275,
                    -0.00118
                ],
                [
                    0.03999,
                    -0.03392,
                    -2.00681
                ]
            ],
            [
                [
                    -1.34132,
                    0.19111,
                    -0.11699
                ],
                [
                    0.22262,
                    -1.81216,
                    -0.00358
                ],
                [
                    -0.09242,
                    -0.04314,
                    -2.1138
                ]
            ],
            [
                [
                    -2.30946,
                    -0.0543,
                    0.4595
                ],
                [
                    -0.10061,
                    -1.73245,
                    0.51583
                ],
                [
                    0.4794,
                    0.50882,
                    -1.85977
                ]
            ],
            [
                [
                    -1.91381,
                    0.15197,
                    0.05241
                ],
                [
                    0.15635,
                    -1.73246,
                    -0.00153
                ],
                [
                    0.03993,
                    -0.03395,
                    -2.00683
                ]
            ],
            [
                [
                    -1.34131,
                    0.19112,
                    -0.11698
                ],
                [
                    0.22255,
                    -1.81196,
                    -0.00346
                ],
                [
                    -0.09242,
                    -0.04311,
                    -2.11383
                ]
            ],
            [
                [
                    -2.30946,
                    0.0543,
                    0.4595
                ],
                [
                    0.10078,
                    -1.73246,
                    -0.51573
                ],
                [
                    0.4794,
                    -0.50882,
                    -1.85977
                ]
            ],
            [
                [
                    -2.52789,
                    0.07155,
                    -0.47264
                ],
                [
                    0.06382,
                    -1.78506,
                    -0.50445
                ],
                [
                    -0.47668,
                    -0.45657,
                    -1.71629
                ]
            ],
            [
                [
                    -1.34132,
                    -0.19111,
                    -0.11699
                ],
                [
                    -0.22255,
                    -1.81196,
                    0.00346
                ],
                [
                    -0.09242,
                    0.04314,
                    -2.1138
                ]
            ]
        ]
    },
    "band_gap": 5.185599999999999,
    "is_direct": true,
    "formula": "LiYSiO4"
}