{
    "mp_id": "mp-540784",
    "nelements": 3,
    "nsites": 21,
    "elements": [
        "O",
        "Rb",
        "Ti"
    ],
    "structure": {
        "@module": "pymatgen.core.structure",
        "@class": "Structure",
        "charge": null,
        "lattice": {
            "matrix": [
                [
                    7.97968162,
                    -1.95145456,
                    0.00218139
                ],
                [
                    7.97968162,
                    1.95145456,
                    0.00218139
                ],
                [
                    -1.55389499,
                    0.0,
                    9.02707679
                ]
            ],
            "a": 8.214834046697046,
            "b": 8.214834046697046,
            "c": 9.159841975301966,
            "alpha": 99.46960470901942,
            "beta": 99.46960470901942,
            "gamma": 27.484266452994742,
            "volume": 281.15225781851717
        },
        "sites": [
            {
                "species": [
                    {
                        "element": "Rb",
                        "occu": 1
                    }
                ],
                "abc": [
                    0.45382546,
                    0.45382546,
                    0.24499237
                ],
                "xyz": [
                    6.862072947368865,
                    0.0,
                    2.213544877594471
                ],
                "label": "Rb",
                "properties": {}
            },
            {
                "species": [
                    {
                        "element": "Rb",
                        "occu": 1
                    }
                ],
                "abc": [
                    0.54617454,
                    0.54617454,
                    0.75500763
                ],
                "xyz": [
                    7.543395302631136,
                    0.0,
                    6.817894692405529
                ],
                "label": "Rb",
                "properties": {}
            },
            {
                "species": [
                    {
                        "element": "Ti",
                        "occu": 1
                    }
                ],
                "abc": [
                    0.11564816,
                    0.11564816,
                    0.09607513
                ],
                "xyz": [
                    1.6963803303070395,
                    0.0,
                    0.8677821235987175
                ],
                "label": "Ti",
                "properties": {}
            },
            {
                "species": [
                    {
                        "element": "Ti",
                        "occu": 1
                    }
                ],
                "abc": [
                    0.88435184,
                    0.88435184,
                    0.90392487
                ],
                "xyz": [
                    12.70908791969296,
                    0.0,
                    8.163657446401285
                ],
                "label": "Ti",
                "properties": {}
            },
            {
                "species": [
                    {
                        "element": "Ti",
                        "occu": 1
                    }
                ],
                "abc": [
                    0.17450809,
                    0.17450809,
                    0.43555094
                ],
                "xyz": [
                    2.108237573072821,
                    0.0,
                    3.932513121741573
                ],
                "label": "Ti",
                "properties": {}
            },
            {
                "species": [
                    {
                        "element": "Ti",
                        "occu": 1
                    }
                ],
                "abc": [
                    0.82549191,
                    0.82549191,
                    0.56444906
                ],
                "xyz": [
                    12.297230676927178,
                    0.0,
                    5.0989264482584264
                ],
                "label": "Ti",
                "properties": {}
            },
            {
                "species": [
                    {
                        "element": "Ti",
                        "occu": 1
                    }
                ],
                "abc": [
                    0.2360674,
                    0.2360674,
                    0.77546911
                ],
                "xyz": [
                    2.562487820793617,
                    0.0,
                    7.001249114374329
                ],
                "label": "Ti",
                "properties": {}
            },
            {
                "species": [
                    {
                        "element": "Ti",
                        "occu": 1
                    }
                ],
                "abc": [
                    0.7639326,
                    0.7639326,
                    0.22453089
                ],
                "xyz": [
                    11.842980429206381,
                    0.0,
                    2.0301904556256716
                ],
                "label": "Ti",
                "properties": {}
            },
            {
                "species": [
                    {
                        "element": "O",
                        "occu": 1
                    }
                ],
                "abc": [
                    0.0,
                    0.0,
                    0.0
                ],
                "xyz": [
                    0.0,
                    0.0,
                    0.0
                ],
                "label": "O",
                "properties": {}
            },
            {
                "species": [
                    {
                        "element": "O",
                        "occu": 1
                    }
                ],
                "abc": [
                    0.2369356,
                    0.2369356,
                    0.24136009
                ],
                "xyz": [
                    3.406293070250395,
                    0.0,
                    2.179809764368279
                ],
                "label": "O",
                "properties": {}
            },
            {
                "species": [
                    {
                        "element": "O",
                        "occu": 1
                    }
                ],
                "abc": [
                    0.7630644,
                    0.7630644,
                    0.75863991
                ],
                "xyz": [
                    10.999175179749605,
                    0.0,
                    6.851629805631721
                ],
                "label": "O",
                "properties": {}
            },
            {
                "species": [
                    {
                        "element": "O",
                        "occu": 1
                    }
                ],
                "abc": [
                    0.07885627,
                    0.07885627,
                    0.2917024
                ],
                "xyz": [
                    0.805220958750539,
                    0.0,
                    2.6335639971849263
                ],
                "label": "O",
                "properties": {}
            },
            {
                "species": [
                    {
                        "element": "O",
                        "occu": 1
                    }
                ],
                "abc": [
                    0.92114373,
                    0.92114373,
                    0.7082976
                ],
                "xyz": [
                    13.600247291249463,
                    0.0,
                    6.397875572815074
                ],
                "label": "O",
                "properties": {}
            },
            {
                "species": [
                    {
                        "element": "O",
                        "occu": 1
                    }
                ],
                "abc": [
                    0.29545385,
                    0.29545385,
                    0.57345232
                ],
                "xyz": [
                    3.824170625754597,
                    0.0,
                    5.177887128191356
                ],
                "label": "O",
                "properties": {}
            },
            {
                "species": [
                    {
                        "element": "O",
                        "occu": 1
                    }
                ],
                "abc": [
                    0.70454615,
                    0.70454615,
                    0.42654768
                ],
                "xyz": [
                    10.581297624245401,
                    0.0,
                    3.8535524418086444
                ],
                "label": "O",
                "properties": {}
            },
            {
                "species": [
                    {
                        "element": "O",
                        "occu": 1
                    }
                ],
                "abc": [
                    0.13730073,
                    0.13730073,
                    0.61728482
                ],
                "xyz": [
                    1.2320364339861136,
                    0.0,
                    5.572876484320157
                ],
                "label": "O",
                "properties": {}
            },
            {
                "species": [
                    {
                        "element": "O",
                        "occu": 1
                    }
                ],
                "abc": [
                    0.86269927,
                    0.86269927,
                    0.38271518
                ],
                "xyz": [
                    13.173431816013888,
                    0.0,
                    3.458563085679843
                ],
                "label": "O",
                "properties": {}
            },
            {
                "species": [
                    {
                        "element": "O",
                        "occu": 1
                    }
                ],
                "abc": [
                    0.35873325,
                    0.35873325,
                    0.88694877
                ],
                "xyz": [
                    4.346928992926068,
                    0.0,
                    8.008119729834483
                ],
                "label": "O",
                "properties": {}
            },
            {
                "species": [
                    {
                        "element": "O",
                        "occu": 1
                    }
                ],
                "abc": [
                    0.64126675,
                    0.64126675,
                    0.11305123
                ],
                "xyz": [
                    10.058539257073932,
                    0.0,
                    1.0233198401655168
                ],
                "label": "O",
                "properties": {}
            },
            {
                "species": [
                    {
                        "element": "O",
                        "occu": 1
                    }
                ],
                "abc": [
                    0.1697001,
                    0.1697001,
                    0.91876056
                ],
                "xyz": [
                    1.2806481065707296,
                    0.0,
                    8.29446249094568
                ],
                "label": "O",
                "properties": {}
            },
            {
                "species": [
                    {
                        "element": "O",
                        "occu": 1
                    }
                ],
                "abc": [
                    0.8302999,
                    0.8302999,
                    0.08123944
                ],
                "xyz": [
                    13.12482014342927,
                    0.0,
                    0.7369770790543196
                ],
                "label": "O",
                "properties": {}
            }
        ]
    },
    "spacegroup": {
        "source": "spglib",
        "symbol": "C2/m",
        "number": 12,
        "point_group": "2/m",
        "crystal_system": "monoclinic",
        "hall": "-C 2y"
    },
    "dielectric": {
        "epsilon_ionic": [
            [
                10.28273114,
                -2e-08,
                0.35409075
            ],
            [
                -2e-08,
                16.06808117,
                -8e-08
            ],
            [
                0.35409075,
                -8e-08,
                23.46536993
            ]
        ],
        "epsilon_ionic_avg": 16.605394079999996,
        "epsilon_ionic_eig": [
            10.273226978341429,
            23.47487409165857,
            16.068081169999996
        ],
        "epsilon_electronic": [
            [
                4.71906768,
                0.0,
                0.00676959
            ],
            [
                0.0,
                5.08708572,
                0.0
            ],
            [
                0.00677038,
                0.0,
                5.95669131
            ]
        ],
        "epsilon_electronic_avg": 5.25428157,
        "epsilon_electronic_eig": [
            4.719030648285119,
            5.956728341714881,
            5.08708572
        ]
    },
    "phonon": {
        "lowest_freq": -0.08365194144943618,
        "frequency": [
            -0.08365194144943618,
            -0.033912813490257314,
            -0.0190945749003408,
            2.105102778584122,
            2.2555615653961976,
            2.562509558193217,
            2.860389274318803,
            3.184563974267184,
            3.603632847551915,
            4.083811543469186,
            4.322971955260835,
            4.369149290386901,
            4.370039926260836,
            5.751116938531666,
            5.764032474218075,
            6.039136913891874,
            6.093909046030033,
            6.666905431065634,
            6.764667482180851,
            6.770533196991798,
            7.174090162638106,
            7.469256903781463,
            7.495288227957693,
            7.836955503300686,
            8.028692857404224,
            8.070544930576505,
            8.142938003424847,
            8.323827062605133,
            8.429029969972424,
            8.465544313085882,
            8.632919683823784,
            8.850083538281929,
            9.13022693233796,
            9.684438411035785,
            9.717412565203162,
            10.836936296772164,
            10.858666148869773,
            11.316596810242672,
            11.61798410240527,
            11.976096760851219,
            12.455466605933518,
            12.967825036142768,
            13.09046972740756,
            13.254550507771263,
            13.708873303667263,
            13.861973951954104,
            14.075663411510579,
            14.415075478266386,
            14.948904482514525,
            14.987289733145948,
            15.075070538617636,
            17.116500563945024,
            17.206600515107272,
            18.34978925667208,
            18.463956454139197,
            18.76826464724312,
            19.072517725146458,
            19.977612937632948,
            20.870677913346565,
            21.813214906575865,
            21.974220063781946,
            24.71778927091217,
            26.84996794237188
        ]
    },
    "born_effective_charge": {
        "avg_abs_trace": 3.422072857142857,
        "tensors": [
            [
                [
                    1.67277,
                    0.0,
                    -0.01103
                ],
                [
                    0.0,
                    1.31334,
                    1e-05
                ],
                [
                    -0.05455,
                    0.0,
                    1.03015
                ]
            ],
            [
                [
                    1.67305,
                    0.0,
                    -0.01109
                ],
                [
                    -0.0,
                    1.31334,
                    -1e-05
                ],
                [
                    -0.05463,
                    0.0,
                    1.0301
                ]
            ],
            [
                [
                    6.31169,
                    0.0,
                    0.76198
                ],
                [
                    -0.00087,
                    6.28915,
                    -0.00043
                ],
                [
                    -0.62332,
                    0.0,
                    6.97595
                ]
            ],
            [
                [
                    6.31167,
                    0.0,
                    0.76198
                ],
                [
                    0.00087,
                    6.28915,
                    0.00043
                ],
                [
                    -0.62308,
                    0.0,
                    6.97601
                ]
            ],
            [
                [
                    2.70722,
                    0.0,
                    0.36991
                ],
                [
                    -0.00048,
                    5.02724,
                    0.00013
                ],
                [
                    0.71213,
                    0.0,
                    7.04017
                ]
            ],
            [
                [
                    2.70796,
                    0.0,
                    0.37002
                ],
                [
                    0.00048,
                    5.02724,
                    -0.00013
                ],
                [
                    0.71164,
                    0.0,
                    7.04003
                ]
            ],
            [
                [
                    4.37811,
                    0.0,
                    -1.00442
                ],
                [
                    -0.00021,
                    5.09495,
                    0.0003
                ],
                [
                    0.10818,
                    0.0,
                    6.05618
                ]
            ],
            [
                [
                    4.37849,
                    0.0,
                    -1.00456
                ],
                [
                    0.00021,
                    5.09495,
                    -0.0003
                ],
                [
                    0.10837,
                    0.0,
                    6.05637
                ]
            ],
            [
                [
                    -6.49382,
                    0.0,
                    -2.65273
                ],
                [
                    0.0,
                    -1.07108,
                    0.0
                ],
                [
                    -2.11795,
                    0.0,
                    -2.4555
                ]
            ],
            [
                [
                    -1.64988,
                    0.0,
                    -0.09721
                ],
                [
                    -0.00084,
                    -4.27783,
                    0.00045
                ],
                [
                    -0.05244,
                    0.0,
                    -2.20879
                ]
            ],
            [
                [
                    -1.64986,
                    0.0,
                    -0.09717
                ],
                [
                    0.00084,
                    -4.27783,
                    -0.00045
                ],
                [
                    -0.05202,
                    0.0,
                    -2.2086
                ]
            ],
            [
                [
                    -2.03579,
                    0.0,
                    -0.78857
                ],
                [
                    -2e-05,
                    -1.22354,
                    -0.00027
                ],
                [
                    -0.82616,
                    0.0,
                    -4.56746
                ]
            ],
            [
                [
                    -2.03541,
                    0.0,
                    -0.78881
                ],
                [
                    2e-05,
                    -1.22354,
                    0.00027
                ],
                [
                    -0.82648,
                    0.0,
                    -4.56759
                ]
            ],
            [
                [
                    -1.36406,
                    0.0,
                    0.05224
                ],
                [
                    -0.00095,
                    -4.26269,
                    9e-05
                ],
                [
                    -0.22802,
                    0.0,
                    -2.19566
                ]
            ],
            [
                [
                    -1.36422,
                    0.0,
                    0.05218
                ],
                [
                    0.00095,
                    -4.26269,
                    -9e-05
                ],
                [
                    -0.22789,
                    0.0,
                    -2.19563
                ]
            ],
            [
                [
                    -1.51633,
                    0.0,
                    0.25331
                ],
                [
                    6e-05,
                    -1.0984,
                    -1e-05
                ],
                [
                    -0.13688,
                    0.0,
                    -4.8335
                ]
            ],
            [
                [
                    -1.51676,
                    0.0,
                    0.25352
                ],
                [
                    -6e-05,
                    -1.0984,
                    1e-05
                ],
                [
                    -0.13637,
                    0.0,
                    -4.83381
                ]
            ],
            [
                [
                    -2.06027,
                    0.0,
                    -0.60225
                ],
                [
                    -0.00161,
                    -5.13477,
                    -0.00063
                ],
                [
                    -0.68187,
                    0.0,
                    -1.67465
                ]
            ],
            [
                [
                    -2.06037,
                    0.0,
                    -0.60255
                ],
                [
                    0.00161,
                    -5.13477,
                    0.00063
                ],
                [
                    -0.68198,
                    0.0,
                    -1.67465
                ]
            ],
            [
                [
                    -3.19714,
                    0.0,
                    2.39257
                ],
                [
                    -0.0004,
                    -1.19192,
                    0.00021
                ],
                [
                    2.842,
                    0.0,
                    -4.3945
                ]
            ],
            [
                [
                    -3.19705,
                    0.0,
                    2.39266
                ],
                [
                    0.0004,
                    -1.19192,
                    -0.00021
                ],
                [
                    2.84131,
                    0.0,
                    -4.39463
                ]
            ]
        ]
    },
    "band_gap": 2.875,
    "is_direct": false,
    "formula": "Rb2Ti6O13"
}